      -----------------------------------------------------------      
     |                   =====================                   |     
     |                           x T B                           |     
     |                   =====================                   |     
     |                         S. Grimme                         |     
     |          Mulliken Center for Theoretical Chemistry        |     
     |                    University of Bonn                     |     
      -----------------------------------------------------------      

   * xtb version 6.5.1 (579679a) compiled by 'ehlert@majestix' on 2022-07-11

   xtb is free software: you can redistribute it and/or modify it under
   the terms of the GNU Lesser General Public License as published by
   the Free Software Foundation, either version 3 of the License, or
   (at your option) any later version.
   
   xtb is distributed in the hope that it will be useful,
   but WITHOUT ANY WARRANTY; without even the implied warranty of
   MERCHANTABILITY or FITNESS FOR A PARTICULAR PURPOSE.  See the
   GNU Lesser General Public License for more details.
   
   Cite this work as:
   * C. Bannwarth, E. Caldeweyher, S. Ehlert, A. Hansen, P. Pracht,
     J. Seibert, S. Spicher, S. Grimme, WIREs Comput. Mol. Sci., 2020, 11,
     e01493. DOI: 10.1002/wcms.1493
   
   for GFN2-xTB:
   * C. Bannwarth, S. Ehlert and S. Grimme., J. Chem. Theory Comput., 2019,
     15, 1652-1671. DOI: 10.1021/acs.jctc.8b01176
   for GFN1-xTB:
   * S. Grimme, C. Bannwarth, P. Shushkov, J. Chem. Theory Comput., 2017,
     13, 1989-2009. DOI: 10.1021/acs.jctc.7b00118
   for GFN0-xTB:
   * P. Pracht, E. Caldeweyher, S. Ehlert, S. Grimme, ChemRxiv, 2019, preprint.
     DOI: 10.26434/chemrxiv.8326202.v1
   for GFN-FF:
   * S. Spicher and S. Grimme, Angew. Chem. Int. Ed., 2020, 59, 15665-15673.
     DOI: 10.1002/anie.202004239
   
   for ALPB and GBSA implicit solvation:
   * S. Ehlert, M. Stahn, S. Spicher, S. Grimme, J. Chem. Theory Comput.,
     2021, 17, 4250-4261. DOI: 10.1021/acs.jctc.1c00471
   
   for DFT-D4:
   * E. Caldeweyher, C. Bannwarth and S. Grimme, J. Chem. Phys., 2017,
     147, 034112. DOI: 10.1063/1.4993215
   * E. Caldeweyher, S. Ehlert, A. Hansen, H. Neugebauer, S. Spicher,
     C. Bannwarth and S. Grimme, J. Chem. Phys., 2019, 150, 154122.
     DOI: 10.1063/1.5090222
   * E. Caldeweyher, J.-M. Mewes, S. Ehlert and S. Grimme, Phys. Chem. Chem. Phys.
     2020, 22, 8499-8512. DOI: 10.1039/D0CP00502A
   
   for sTDA-xTB:
   * S. Grimme and C. Bannwarth, J. Chem. Phys., 2016, 145, 054103.
     DOI: 10.1063/1.4959605
   
   in the mass-spec context:
   * V. Asgeirsson, C. Bauer and S. Grimme, Chem. Sci., 2017, 8, 4879.
     DOI: 10.1039/c7sc00601b
   * J. Koopman and S. Grimme, ACS Omega 2019, 4, 12, 15120-15133.
     DOI: 10.1021/acsomega.9b02011
   
   for metadynamics refer to:
   * S. Grimme, J. Chem. Theory Comput., 2019, 155, 2847-2862
     DOI: 10.1021/acs.jctc.9b00143
   
   for SPH calculations refer to:
   * S. Spicher and S. Grimme, J. Chem. Theory Comput., 2021, 17, 1701-1714
     DOI: 10.1021/acs.jctc.0c01306
   
   with help from (in alphabetical order)
   P. Atkinson, C. Bannwarth, F. Bohle, G. Brandenburg, E. Caldeweyher
   M. Checinski, S. Dohm, S. Ehlert, S. Ehrlich, I. Gerasimov, C. Hölzer
   A. Katbashev, J. Koopman, C. Lavigne, S. Lehtola, F. März, M. Müller,
   F. Musil, H. Neugebauer, J. Pisarek, C. Plett, P. Pracht, F. Pultar,
   J. Seibert, P. Shushkov, S. Spicher, M. Stahn, M. Steiner, T. Strunk,
   J. Stückrath, T. Rose, and J. Unsleber
   
 * started run on 2023/06/20 at 18:28:17.337     

           -------------------------------------------------
          |                Calculation Setup                |
           -------------------------------------------------

          program call               : /lustre/hpc/kemi/ree/PhD/git/ReactivityQM/dep/xtb-6.5.1/bin/xtb --gfn 1 /lustre/hpc/kemi/ree/PhD/git/ReactivityQM/calculations/R02deprot/reac01prodN17/conf16/R02deprot_reac01prodN17_conf16_gfn1.xyz --opt --vfukui --chrg 0 --uhf 0 --alpb DMSO
          hostname                   : node308
          coordinate file            : /lustre/hpc/kemi/ree/PhD/git/ReactivityQM/calculations/R02deprot/reac01prodN17/conf16/R02deprot_reac01prodN17_conf16_gfn1.xyz
          omp threads                :                     1

   ID    Z sym.   atoms
    1    6 C      1, 2, 5, 6, 9-12, 14, 15, 18-20, 22
    2    7 N      3, 4, 8, 13, 24
    3    8 O      7, 16, 17, 21, 23, 25
    4    1 H      26-42

           -------------------------------------------------
          |                 G F N 1 - x T B                 |
           -------------------------------------------------

        Reference                      10.1021/acs.jctc.7b00118
      * Hamiltonian:
        H0-scaling (s, p, d)           1.850000    2.250000    2.000000
        zeta-weighting                 0.000000
      * Dispersion:
        s8                             2.400000
        a1                             0.630000
        a2                             5.000000
        s9                             0.000000
      * Repulsion:
        kExp                           1.500000
        rExp                           1.000000
      * Coulomb:
        alpha                          2.000000
        third order                    atomic
        anisotropic                    false
      * Halogen bond correction:
        rad-scale                      1.300000
        damping                        0.440000

      * Solvation model:               ALPB
        Solvent                        DMSO
        Parameter file                 internal GFN1-xTB/ALPB
        Dielectric constant                4.6680E+01
        Reference state                gsolv [1 M gas/solution]
        Free energy shift                  7.6243E-03 Eh       4.7843E+00 kcal/mol
        Temperature                        2.9815E+02 K
        Density                            1.1000E+00 kg/L
        Solvent mass                       7.8130E+01 g/mol
        Interaction kernel             P16
        Born radius scaling (c1)           1.7672E+00
        Born radii integrator          GBOBC
        Born offset                        0.0000E+00 a0       0.0000E+00 AA
        H-bond correction              true
        Ion screening                  false
        Surface tension                    1.0000E-05 Eh       1.5569E+01 dyn/cm
        Grid points                               230 per atom

          ...................................................
          :                      SETUP                      :
          :.................................................:
          :  # basis functions                 134          :
          :  # atomic orbitals                 134          :
          :  # shells                           84          :
          :  # electrons                       134          :
          :  # halogen bonds                     0          :
          :  max. iterations                   250          :
          :  Hamiltonian                  GFN1-xTB          :
          :  restarted?                      false          :
          :  GBSA solvation                   true          :
          :  PC potential                    false          :
          :  electronic temp.          300.0000000     K    :
          :  accuracy                    1.0000000          :
          :  -> integral cutoff          0.2500000E+02      :
          :  -> integral neglect         0.1000000E-07      :
          :  -> SCF convergence          0.1000000E-05 Eh   :
          :  -> wf. convergence          0.2000000E-04 e    :
          :  Broyden damping             0.4000000          :
          ...................................................

 iter      E             dE          RMSdq      gap      omega  full diag
   1    -83.3342805 -0.833343E+02  0.845E+00    2.84       0.0  T
   2    -83.6429392 -0.308659E+00  0.504E+00    1.55       1.0  T
   3    -83.6046490  0.382901E-01  0.179E+00    1.76       1.0  T
   4    -83.6537019 -0.490529E-01  0.472E-01    1.30       1.0  T
   5    -83.6667555 -0.130536E-01  0.162E-01    1.50       1.0  T
   6    -83.6684096 -0.165404E-02  0.208E-02    1.46       1.0  T
   7    -83.6684199 -0.103360E-04  0.694E-03    1.44       2.2  T
   8    -83.6684206 -0.717759E-06  0.293E-03    1.44       5.3  T
   9    -83.6684207 -0.404806E-07  0.945E-04    1.44      16.3  T
  10    -83.6684207 -0.213125E-07  0.322E-04    1.44      47.9  T
  11    -83.6684207 -0.479716E-09  0.116E-04    1.44     132.5  T
  12    -83.6684207 -0.190596E-09  0.285E-05    1.44     541.5  T

   *** convergence criteria satisfied after 12 iterations ***

         #    Occupation            Energy/Eh            Energy/eV
      -------------------------------------------------------------
         1        2.0000           -0.9094916             -24.7485
       ...           ...                  ...                  ...
        61        2.0000           -0.4525043             -12.3133
        62        2.0000           -0.4474450             -12.1756
        63        2.0000           -0.4403459             -11.9824
        64        2.0000           -0.4307373             -11.7210
        65        2.0000           -0.4258042             -11.5867
        66        2.0000           -0.4002028             -10.8901
        67        2.0000           -0.3955390             -10.7632 (HOMO)
        68                         -0.3424553              -9.3187 (LUMO)
        69                         -0.3106384              -8.4529
        70                         -0.2561906              -6.9713
        71                         -0.2555453              -6.9537
        72                         -0.2365135              -6.4359
       ...                                ...                  ...
       134                          0.7237765              19.6950
      -------------------------------------------------------------
                  HL-Gap            0.0530837 Eh            1.4445 eV
             Fermi-level           -0.3689880 Eh          -10.0407 eV

 SCC (total)                   0 d,  0 h,  0 min,  0.161 sec
 SCC setup                      ...        0 min,  0.002 sec (  1.331%)
 Dispersion                     ...        0 min,  0.000 sec (  0.262%)
 classical contributions        ...        0 min,  0.000 sec (  0.085%)
 integral evaluation            ...        0 min,  0.033 sec ( 20.764%)
 iterations                     ...        0 min,  0.046 sec ( 28.863%)
 molecular gradient             ...        0 min,  0.077 sec ( 48.058%)
 printout                       ...        0 min,  0.001 sec (  0.598%)

         :::::::::::::::::::::::::::::::::::::::::::::::::::::
         ::                     SUMMARY                     ::
         :::::::::::::::::::::::::::::::::::::::::::::::::::::
         :: total energy             -82.910314244898 Eh    ::
         :: total w/o Gsasa/hb       -82.887320514613 Eh    ::
         :: gradient norm              0.120718842546 Eh/a0 ::
         :: HOMO-LUMO gap              1.444480629112 eV    ::
         ::.................................................::
         :: SCC energy               -83.668420697581 Eh    ::
         :: -> electrostatic           0.394359813773 Eh    ::
         :: -> Gsolv                  -0.081920192621 Eh    ::
         ::    -> Gelec               -0.058926462336 Eh    ::
         ::    -> Gsasa               -0.024494714081 Eh    ::
         ::    -> Ghb                 -0.006123295208 Eh    ::
         ::    -> Gshift               0.007624279005 Eh    ::
         :: repulsion energy           0.783879678356 Eh    ::
         :: dispersion energy         -0.025773225673 Eh    ::
         :: halogen bond corr.         0.000000000000 Eh    ::
         :: add. restraining           0.000000000000 Eh    ::
         :: total charge               0.000000000000 e     ::
         :::::::::::::::::::::::::::::::::::::::::::::::::::::

      ----------------------------------------------------------- 
     |                   =====================                   |
     |                        A N C O P T                        |
     |                   =====================                   |
     |               Approximate Normal Coordinate               |
     |                Rational Function Optimizer                |
      ----------------------------------------------------------- 

          ...................................................
          :                      SETUP                      :
          :.................................................:
          :   optimization level            normal          :
          :   max. optcycles                   200          :
          :   ANC micro-cycles                  20          :
          :   degrees of freedom               120          :
          :.................................................:
          :   RF solver                   davidson          :
          :   write xtbopt.log                true          :
          :   linear?                        false          :
          :   energy convergence         0.5000000E-05 Eh   :
          :   grad. convergence          0.1000000E-02 Eh/α :
          :   maximium RF displ.         1.0000000          :
          :   Hlow (freq-cutoff)         0.1000000E-01      :
          :   Hmax (freq-cutoff)         5.0000000          :
          :   S6 in model hess.         20.0000000          :
          ...................................................

generating ANC from model Hessian ...
Using Lindh-Hessian (1995)
 Shifting diagonal of input Hessian by   9.850620084555587E-003
 Lowest  eigenvalues of input Hessian
    0.000000    0.000000    0.000000    0.000000    0.000000    0.000000
    0.010000    0.010216    0.010610    0.010875    0.011236    0.011742
    0.012594    0.012956    0.015143    0.016117    0.016458    0.017194
 Highest eigenvalues
    2.019338    2.111172    2.146226    2.254162    2.343412    2.368704
 

........................................................................
.............................. CYCLE    1 ..............................
........................................................................
   1    -83.6684207 -0.836684E+02  0.875E-06    1.44       0.0  T
   2    -83.6684207 -0.227374E-12  0.488E-06    1.44    3161.4  T
   3    -83.6684207 -0.227374E-12  0.238E-06    1.44    6478.2  T
     SCC iter.                  ...        0 min,  0.012 sec
     gradient                   ...        0 min,  0.078 sec
 * total energy  :   -82.9103142 Eh     change       -0.2341949E-10 Eh
   gradient norm :     0.1207190 Eh/α   predicted     0.0000000E+00 (-100.00%)
   displ. norm   :     0.3103144 α      lambda       -0.1807182E-01
   maximum displ.:     0.1297903 α      in ANC's #27, #33, #45, ...

........................................................................
.............................. CYCLE    2 ..............................
........................................................................
   1    -83.6843165 -0.836843E+02  0.938E-02    1.57       0.0  T
   2    -83.6846254 -0.308899E-03  0.413E-02    1.55       1.0  T
   3    -83.6846726 -0.472595E-04  0.184E-02    1.55       1.0  T
   4    -83.6846723  0.375588E-06  0.958E-03    1.55       1.6  T
   5    -83.6846750 -0.272341E-05  0.288E-03    1.55       5.4  T
   6    -83.6846752 -0.206597E-06  0.419E-04    1.55      36.9  T
   7    -83.6846752 -0.329393E-08  0.161E-04    1.55      96.1  T
   8    -83.6846752 -0.303743E-09  0.462E-05    1.55     334.0  T
     SCC iter.                  ...        0 min,  0.021 sec
     gradient                   ...        0 min,  0.044 sec
 * total energy  :   -82.9233836 Eh     change       -0.1306939E-01 Eh
   gradient norm :     0.0654583 Eh/α   predicted    -0.9916333E-02 ( -24.13%)
   displ. norm   :     0.2886281 α      lambda       -0.7978997E-02
   maximum displ.:     0.1058146 α      in ANC's #6, #27, #8, ...

........................................................................
.............................. CYCLE    3 ..............................
........................................................................
   1    -83.6985487 -0.836985E+02  0.990E-02    1.62       0.0  T
   2    -83.6988655 -0.316794E-03  0.512E-02    1.62       1.0  T
   3    -83.6989838 -0.118308E-03  0.185E-02    1.62       1.0  T
   4    -83.6989878 -0.397250E-05  0.929E-03    1.62       1.7  T
   5    -83.6989888 -0.102876E-05  0.250E-03    1.62       6.2  T
   6    -83.6989889 -0.924975E-07  0.492E-04    1.62      31.4  T
   7    -83.6989889 -0.475519E-08  0.172E-04    1.62      90.0  T
   8    -83.6989889 -0.325912E-09  0.446E-05    1.62     345.7  T
     SCC iter.                  ...        0 min,  0.021 sec
     gradient                   ...        0 min,  0.044 sec
 * total energy  :   -82.9280920 Eh     change       -0.4708399E-02 Eh
   gradient norm :     0.0220679 Eh/α   predicted    -0.4323550E-02 (  -8.17%)
   displ. norm   :     0.2422760 α      lambda       -0.1333752E-02
   maximum displ.:     0.1513333 α      in ANC's #6, #7, #8, ...

........................................................................
.............................. CYCLE    4 ..............................
........................................................................
   1    -83.7023343 -0.837023E+02  0.345E-02    1.62       0.0  T
   2    -83.7023737 -0.393527E-04  0.223E-02    1.62       1.0  T
   3    -83.7023993 -0.256200E-04  0.675E-03    1.62       2.3  T
   4    -83.7023996 -0.320785E-06  0.341E-03    1.62       4.5  T
   5    -83.7023997 -0.110036E-06  0.829E-04    1.62      18.6  T
   6    -83.7023997 -0.105082E-07  0.208E-04    1.62      74.0  T
   7    -83.7023997 -0.879709E-09  0.712E-05    1.62     216.8  T
   8    -83.7023997 -0.596430E-10  0.172E-05    1.62     896.1  T
     SCC iter.                  ...        0 min,  0.029 sec
     gradient                   ...        0 min,  0.060 sec
 * total energy  :   -82.9291200 Eh     change       -0.1027974E-02 Eh
   gradient norm :     0.0130578 Eh/α   predicted    -0.7060754E-03 ( -31.31%)
   displ. norm   :     0.4334383 α      lambda       -0.1490072E-02
   maximum displ.:     0.2803488 α      in ANC's #6, #7, #8, ...

........................................................................
.............................. CYCLE    5 ..............................
........................................................................
   1    -83.7039559 -0.837040E+02  0.409E-02    1.60       0.0  T
   2    -83.7040195 -0.636282E-04  0.281E-02    1.61       1.0  T
   3    -83.7040593 -0.398256E-04  0.892E-03    1.61       1.7  T
   4    -83.7040598 -0.456219E-06  0.449E-03    1.61       3.4  T
   5    -83.7040599 -0.143883E-06  0.104E-03    1.61      14.9  T
   6    -83.7040599 -0.189171E-07  0.266E-04    1.61      57.9  T
   7    -83.7040599 -0.142785E-08  0.101E-04    1.61     152.2  T
   8    -83.7040599 -0.129106E-09  0.263E-05    1.61     587.7  T
     SCC iter.                  ...        0 min,  0.021 sec
     gradient                   ...        0 min,  0.044 sec
 * total energy  :   -82.9301929 Eh     change       -0.1072875E-02 Eh
   gradient norm :     0.0136367 Eh/α   predicted    -0.8850190E-03 ( -17.51%)
   displ. norm   :     0.4084910 α      lambda       -0.8885959E-03
   maximum displ.:     0.2627484 α      in ANC's #6, #7, #2, ...

........................................................................
.............................. CYCLE    6 ..............................
........................................................................
   1    -83.7046038 -0.837046E+02  0.257E-02    1.61       0.0  T
   2    -83.7046372 -0.333727E-04  0.143E-02    1.61       1.1  T
   3    -83.7046446 -0.746705E-05  0.579E-03    1.61       2.7  T
   4    -83.7046451 -0.420937E-06  0.359E-03    1.61       4.3  T
   5    -83.7046452 -0.164976E-06  0.754E-04    1.61      20.5  T
   6    -83.7046452 -0.103021E-07  0.185E-04    1.61      83.4  T
   7    -83.7046452 -0.654126E-09  0.767E-05    1.61     201.1  T
     SCC iter.                  ...        0 min,  0.026 sec
     gradient                   ...        0 min,  0.077 sec
 * total energy  :   -82.9308818 Eh     change       -0.6889589E-03 Eh
   gradient norm :     0.0144185 Eh/α   predicted    -0.5184359E-03 ( -24.75%)
   displ. norm   :     0.4310430 α      lambda       -0.7871483E-03
   maximum displ.:     0.2705595 α      in ANC's #6, #7, #2, ...

........................................................................
.............................. CYCLE    7 ..............................
........................................................................
   1    -83.7056545 -0.837057E+02  0.223E-02    1.62       0.0  T
   2    -83.7056825 -0.280431E-04  0.917E-03    1.62       1.7  T
   3    -83.7056841 -0.163036E-05  0.416E-03    1.61       3.7  T
   4    -83.7056842 -0.411703E-07  0.290E-03    1.61       5.3  T
   5    -83.7056843 -0.153810E-06  0.751E-04    1.61      20.5  T
   6    -83.7056843 -0.184037E-07  0.144E-04    1.61     107.3  T
   7    -83.7056843 -0.374527E-09  0.658E-05    1.61     234.5  T
     SCC iter.                  ...        0 min,  0.026 sec
     gradient                   ...        0 min,  0.077 sec
 * total energy  :   -82.9315030 Eh     change       -0.6211944E-03 Eh
   gradient norm :     0.0120542 Eh/α   predicted    -0.4667273E-03 ( -24.87%)
   displ. norm   :     0.4477293 α      lambda       -0.6787349E-03
   maximum displ.:     0.2776819 α      in ANC's #6, #7, #2, ...

........................................................................
.............................. CYCLE    8 ..............................
........................................................................
   1    -83.7071833 -0.837072E+02  0.216E-02    1.62       0.0  T
   2    -83.7072076 -0.242748E-04  0.827E-03    1.62       1.9  T
   3    -83.7072094 -0.178332E-05  0.428E-03    1.62       3.6  T
   4    -83.7072095 -0.126182E-06  0.232E-03    1.62       6.7  T
   5    -83.7072096 -0.842391E-07  0.811E-04    1.62      19.0  T
   6    -83.7072096 -0.152316E-07  0.128E-04    1.62     120.2  T
   7    -83.7072096 -0.335632E-09  0.531E-05    1.62     290.4  T
     SCC iter.                  ...        0 min,  0.026 sec
     gradient                   ...        0 min,  0.077 sec
 * total energy  :   -82.9320178 Eh     change       -0.5147355E-03 Eh
   gradient norm :     0.0091155 Eh/α   predicted    -0.4073983E-03 ( -20.85%)
   displ. norm   :     0.4164348 α      lambda       -0.4845749E-03
   maximum displ.:     0.2574219 α      in ANC's #6, #2, #7, ...

........................................................................
.............................. CYCLE    9 ..............................
........................................................................
   1    -83.7084480 -0.837084E+02  0.133E-02    1.61       0.0  T
   2    -83.7084552 -0.724579E-05  0.580E-03    1.61       2.7  T
   3    -83.7084559 -0.688443E-06  0.312E-03    1.61       4.9  T
   4    -83.7084559  0.485448E-08  0.146E-03    1.61      10.6  T
   5    -83.7084560 -0.650102E-07  0.498E-04    1.61      31.0  T
   6    -83.7084560 -0.724637E-08  0.862E-05    1.61     179.1  T
   7    -83.7084560 -0.140290E-09  0.287E-05    1.61     536.8  T
     SCC iter.                  ...        0 min,  0.025 sec
     gradient                   ...        0 min,  0.077 sec
 * total energy  :   -82.9323815 Eh     change       -0.3637252E-03 Eh
   gradient norm :     0.0087059 Eh/α   predicted    -0.2843052E-03 ( -21.84%)
   displ. norm   :     0.3696636 α      lambda       -0.3497471E-03
   maximum displ.:     0.2263388 α      in ANC's #6, #2, #7, ...

........................................................................
.............................. CYCLE   10 ..............................
........................................................................
   1    -83.7107414 -0.837107E+02  0.134E-02    1.62       0.0  T
   2    -83.7107495 -0.810080E-05  0.870E-03    1.61       1.8  T
   3    -83.7107538 -0.432248E-05  0.270E-03    1.61       5.7  T
   4    -83.7107539 -0.681287E-07  0.147E-03    1.61      10.5  T
   5    -83.7107539 -0.172501E-08  0.330E-04    1.61      46.7  T
   6    -83.7107539 -0.257424E-08  0.687E-05    1.61     224.5  T
   7    -83.7107539 -0.768807E-10  0.236E-05    1.61     653.7  T
     SCC iter.                  ...        0 min,  0.025 sec
     gradient                   ...        0 min,  0.077 sec
 * total energy  :   -82.9326264 Eh     change       -0.2448559E-03 Eh
   gradient norm :     0.0105778 Eh/α   predicted    -0.1987723E-03 ( -18.82%)
   displ. norm   :     0.3297638 α      lambda       -0.2513430E-03
   maximum displ.:     0.2043281 α      in ANC's #6, #2, #7, ...

........................................................................
.............................. CYCLE   11 ..............................
........................................................................
   1    -83.7102063 -0.837102E+02  0.119E-02    1.58       0.0  T
   2    -83.7102151 -0.878636E-05  0.608E-03    1.59       2.5  T
   3    -83.7102166 -0.150413E-05  0.223E-03    1.59       6.9  T
   4    -83.7102167 -0.843084E-07  0.143E-03    1.59      10.8  T
   5    -83.7102167 -0.156780E-07  0.336E-04    1.59      45.9  T
   6    -83.7102167 -0.185302E-08  0.610E-05    1.59     252.9  T
   7    -83.7102167 -0.105572E-09  0.206E-05    1.59     747.4  T
     SCC iter.                  ...        0 min,  0.025 sec
     gradient                   ...        0 min,  0.077 sec
 * total energy  :   -82.9327863 Eh     change       -0.1599221E-03 Eh
   gradient norm :     0.0085661 Eh/α   predicted    -0.1393468E-03 ( -12.87%)
   displ. norm   :     0.2739475 α      lambda       -0.2224329E-03
   maximum displ.:     0.1575356 α      in ANC's #6, #2, #7, ...

........................................................................
.............................. CYCLE   12 ..............................
........................................................................
   1    -83.7127301 -0.837127E+02  0.140E-02    1.60       0.0  T
   2    -83.7127401 -0.995265E-05  0.999E-03    1.60       1.5  T
   3    -83.7127439 -0.382899E-05  0.379E-03    1.60       4.1  T
   4    -83.7127439  0.472599E-08  0.222E-03    1.60       6.9  T
   5    -83.7127440 -0.646222E-07  0.454E-04    1.60      34.0  T
   6    -83.7127440 -0.558808E-08  0.620E-05    1.60     248.8  T
   7    -83.7127440 -0.664500E-10  0.300E-05    1.60     513.8  T
     SCC iter.                  ...        0 min,  0.025 sec
     gradient                   ...        0 min,  0.077 sec
 * total energy  :   -82.9329361 Eh     change       -0.1497744E-03 Eh
   gradient norm :     0.0080108 Eh/α   predicted    -0.1195638E-03 ( -20.17%)
   displ. norm   :     0.2897964 α      lambda       -0.1670772E-03
   maximum displ.:     0.1689821 α      in ANC's #6, #2, #7, ...

........................................................................
.............................. CYCLE   13 ..............................
........................................................................
   1    -83.7107623 -0.837108E+02  0.116E-02    1.60       0.0  T
   2    -83.7107683 -0.600486E-05  0.520E-03    1.60       3.0  T
   3    -83.7107686 -0.384856E-06  0.246E-03    1.60       6.3  T
   4    -83.7107686  0.983457E-08  0.170E-03    1.60       9.1  T
   5    -83.7107687 -0.700060E-07  0.342E-04    1.60      45.1  T
   6    -83.7107687 -0.343853E-08  0.725E-05    1.60     213.0  T
   7    -83.7107687 -0.104833E-09  0.335E-05    1.60     460.3  T
     SCC iter.                  ...        0 min,  0.026 sec
     gradient                   ...        0 min,  0.081 sec
 * total energy  :   -82.9330555 Eh     change       -0.1194198E-03 Eh
   gradient norm :     0.0069462 Eh/α   predicted    -0.9055882E-04 ( -24.17%)
   displ. norm   :     0.2429589 α      lambda       -0.1943855E-03
   maximum displ.:     0.1140259 α      in ANC's #2, #6, #7, ...

........................................................................
.............................. CYCLE   14 ..............................
........................................................................
   1    -83.7126886 -0.837127E+02  0.208E-02    1.59       0.0  T
   2    -83.7127096 -0.210248E-04  0.784E-03    1.60       2.0  T
   3    -83.7127105 -0.891730E-06  0.416E-03    1.60       3.7  T
   4    -83.7127105  0.290061E-08  0.203E-03    1.60       7.6  T
   5    -83.7127106 -0.713403E-07  0.676E-04    1.60      22.8  T
   6    -83.7127106 -0.189116E-07  0.143E-04    1.60     108.2  T
   7    -83.7127106 -0.590660E-09  0.595E-05    1.60     259.2  T
     SCC iter.                  ...        0 min,  0.025 sec
     gradient                   ...        0 min,  0.083 sec
 * total energy  :   -82.9331523 Eh     change       -0.9682450E-04 Eh
   gradient norm :     0.0061037 Eh/α   predicted    -0.1029329E-03 (   6.31%)
   displ. norm   :     0.1364599 α      lambda       -0.7860895E-04
   maximum displ.:     0.0638718 α      in ANC's #7, #6, #2, ...

........................................................................
.............................. CYCLE   15 ..............................
........................................................................
   1    -83.7103864 -0.837104E+02  0.712E-03    1.61       0.0  T
   2    -83.7103884 -0.206924E-05  0.312E-03    1.61       4.9  T
   3    -83.7103886 -0.165807E-06  0.143E-03    1.61      10.8  T
   4    -83.7103886  0.971640E-08  0.101E-03    1.61      15.3  T
   5    -83.7103886 -0.274350E-07  0.165E-04    1.61      93.3  T
   6    -83.7103886 -0.550372E-09  0.349E-05    1.61     442.1  T
     SCC iter.                  ...        0 min,  0.022 sec
     gradient                   ...        0 min,  0.083 sec
 * total energy  :   -82.9332032 Eh     change       -0.5094732E-04 Eh
   gradient norm :     0.0049636 Eh/α   predicted    -0.4004028E-04 ( -21.41%)
   displ. norm   :     0.0969006 α      lambda       -0.7920970E-04
   maximum displ.:     0.0437966 α      in ANC's #1, #8, #11, ...

........................................................................
.............................. CYCLE   16 ..............................
........................................................................
   1    -83.7103615 -0.837104E+02  0.496E-03    1.61       0.0  T
   2    -83.7103625 -0.953800E-06  0.304E-03    1.61       5.1  T
   3    -83.7103627 -0.254501E-06  0.122E-03    1.61      12.6  T
   4    -83.7103627  0.605451E-08  0.779E-04    1.61      19.8  T
   5    -83.7103627 -0.146133E-07  0.160E-04    1.61      96.4  T
   6    -83.7103627 -0.454264E-09  0.213E-05    1.61     723.0  T
     SCC iter.                  ...        0 min,  0.022 sec
     gradient                   ...        0 min,  0.083 sec
 * total energy  :   -82.9332600 Eh     change       -0.5676292E-04 Eh
   gradient norm :     0.0044106 Eh/α   predicted    -0.4000332E-04 ( -29.53%)
   displ. norm   :     0.1517642 α      lambda       -0.7506528E-04
   maximum displ.:     0.0778545 α      in ANC's #1, #11, #8, ...

........................................................................
.............................. CYCLE   17 ..............................
........................................................................
   1    -83.7100288 -0.837100E+02  0.473E-03    1.61       0.0  T
   2    -83.7100295 -0.679979E-06  0.241E-03    1.61       6.4  T
   3    -83.7100295 -0.718248E-07  0.119E-03    1.61      13.0  T
   4    -83.7100295 -0.165328E-08  0.328E-04    1.61      47.0  T
   5    -83.7100295 -0.763919E-09  0.716E-05    1.61     215.5  T
   6    -83.7100295 -0.178133E-09  0.356E-05    1.61     433.4  T
     SCC iter.                  ...        0 min,  0.021 sec
     gradient                   ...        0 min,  0.085 sec
 * total energy  :   -82.9333083 Eh     change       -0.4833125E-04 Eh
   gradient norm :     0.0047116 Eh/α   predicted    -0.3840463E-04 ( -20.54%)
   displ. norm   :     0.1342363 α      lambda       -0.5813414E-04
   maximum displ.:     0.0788534 α      in ANC's #1, #8, #11, ...

........................................................................
.............................. CYCLE   18 ..............................
........................................................................
   1    -83.7107239 -0.837107E+02  0.617E-03    1.61       0.0  T
   2    -83.7107253 -0.139652E-05  0.349E-03    1.61       4.4  T
   3    -83.7107258 -0.488112E-06  0.129E-03    1.61      12.0  T
   4    -83.7107258 -0.219517E-07  0.814E-04    1.61      19.0  T
   5    -83.7107258 -0.867819E-08  0.122E-04    1.61     126.3  T
   6    -83.7107258 -0.224077E-09  0.374E-05    1.61     412.3  T
     SCC iter.                  ...        0 min,  0.016 sec
     gradient                   ...        0 min,  0.043 sec
 * total energy  :   -82.9333472 Eh     change       -0.3887833E-04 Eh
   gradient norm :     0.0042639 Eh/α   predicted    -0.2959476E-04 ( -23.88%)
   displ. norm   :     0.1667899 α      lambda       -0.5856678E-04
   maximum displ.:     0.0963041 α      in ANC's #1, #3, #6, ...

........................................................................
.............................. CYCLE   19 ..............................
........................................................................
   1    -83.7114371 -0.837114E+02  0.424E-03    1.61       0.0  T
   2    -83.7114376 -0.575636E-06  0.168E-03    1.61       9.2  T
   3    -83.7114377 -0.338734E-07  0.973E-04    1.61      15.9  T
   4    -83.7114377 -0.354441E-08  0.412E-04    1.61      37.5  T
   5    -83.7114377 -0.410864E-08  0.148E-04    1.61     104.5  T
   6    -83.7114377 -0.727312E-09  0.291E-05    1.61     529.9  T
     SCC iter.                  ...        0 min,  0.016 sec
     gradient                   ...        0 min,  0.050 sec
 * total energy  :   -82.9333903 Eh     change       -0.4309043E-04 Eh
   gradient norm :     0.0033642 Eh/α   predicted    -0.3010447E-04 ( -30.14%)
   displ. norm   :     0.2045419 α      lambda       -0.5705157E-04
   maximum displ.:     0.1155315 α      in ANC's #1, #6, #3, ...

........................................................................
.............................. CYCLE   20 ..............................
........................................................................
   1    -83.7111974 -0.837112E+02  0.474E-03    1.61       0.0  T
   2    -83.7111985 -0.105677E-05  0.240E-03    1.61       6.4  T
   3    -83.7111986 -0.121719E-06  0.102E-03    1.61      15.1  T
   4    -83.7111986  0.274885E-08  0.654E-04    1.61      23.6  T
   5    -83.7111986 -0.116281E-07  0.158E-04    1.61      97.8  T
   6    -83.7111986 -0.448296E-09  0.413E-05    1.61     373.6  T
     SCC iter.                  ...        0 min,  0.016 sec
     gradient                   ...        0 min,  0.043 sec
 * total energy  :   -82.9334303 Eh     change       -0.4002331E-04 Eh
   gradient norm :     0.0033446 Eh/α   predicted    -0.2972212E-04 ( -25.74%)
   displ. norm   :     0.1376199 α      lambda       -0.4790791E-04
   maximum displ.:     0.1012045 α      in ANC's #1, #3, #6, ...
 * RMSD in coord.:     0.6663505 α      energy gain  -0.2311609E-01 Eh

generating ANC from model Hessian ...
Using Lindh-Hessian (1995)
 Shifting diagonal of input Hessian by   9.831943147084984E-003
 Lowest  eigenvalues of input Hessian
    0.000000    0.000000    0.000000    0.000000    0.000000    0.000000
    0.010000    0.010318    0.010601    0.010704    0.011142    0.011963
    0.012568    0.012789    0.015123    0.016403    0.016934    0.017420
 Highest eigenvalues
    2.030915    2.127708    2.182661    2.349670    2.379221    2.408676
 

........................................................................
.............................. CYCLE   21 ..............................
........................................................................
   1    -83.7128763 -0.837129E+02  0.564E-03    1.61       0.0  T
   2    -83.7128775 -0.116962E-05  0.249E-03    1.61       6.2  T
   3    -83.7128776 -0.107892E-06  0.124E-03    1.61      12.5  T
   4    -83.7128776  0.912181E-09  0.578E-04    1.61      26.7  T
   5    -83.7128776 -0.100205E-07  0.190E-04    1.61      81.4  T
   6    -83.7128776 -0.104771E-08  0.387E-05    1.61     398.3  T
     SCC iter.                  ...        0 min,  0.016 sec
     gradient                   ...        0 min,  0.074 sec
 * total energy  :   -82.9334605 Eh     change       -0.3018727E-04 Eh
   gradient norm :     0.0034623 Eh/α   predicted     0.0000000E+00 (-100.00%)
   displ. norm   :     0.0343171 α      lambda       -0.2541047E-04
   maximum displ.:     0.0214965 α      in ANC's #1, #7, #10, ...

........................................................................
.............................. CYCLE   22 ..............................
........................................................................
   1    -83.7120660 -0.837121E+02  0.282E-03    1.61       0.0  T
   2    -83.7120662 -0.197205E-06  0.154E-03    1.61      10.0  T
   3    -83.7120663 -0.584716E-07  0.712E-04    1.61      21.7  T
   4    -83.7120663 -0.214108E-08  0.399E-04    1.61      38.7  T
   5    -83.7120663 -0.392122E-08  0.582E-05    1.61     265.2  T
   6    -83.7120663 -0.606377E-10  0.125E-05    1.61    1230.7  T
     SCC iter.                  ...        0 min,  0.022 sec
     gradient                   ...        0 min,  0.067 sec
 * total energy  :   -82.9334859 Eh     change       -0.2537576E-04 Eh
   gradient norm :     0.0018137 Eh/α   predicted    -0.1585151E-04 ( -37.53%)
   displ. norm   :     0.1411404 α      lambda       -0.5192920E-04
   maximum displ.:     0.0878763 α      in ANC's #1, #7, #10, ...

........................................................................
.............................. CYCLE   23 ..............................
........................................................................
   1    -83.7102049 -0.837102E+02  0.768E-03    1.61       0.0  T
   2    -83.7102066 -0.168660E-05  0.380E-03    1.62       4.1  T
   3    -83.7102069 -0.276304E-06  0.177E-03    1.62       8.7  T
   4    -83.7102069 -0.316447E-09  0.107E-03    1.62      14.4  T
   5    -83.7102069 -0.326743E-07  0.201E-04    1.62      76.8  T
   6    -83.7102069 -0.798323E-09  0.401E-05    1.62     385.0  T
   7    -83.7102069 -0.331255E-10  0.150E-05    1.62    1026.3  T
     SCC iter.                  ...        0 min,  0.026 sec
     gradient                   ...        0 min,  0.077 sec
 * total energy  :   -82.9335233 Eh     change       -0.3742728E-04 Eh
   gradient norm :     0.0036675 Eh/α   predicted    -0.2619520E-04 ( -30.01%)
   displ. norm   :     0.0426176 α      lambda       -0.2038674E-04
   maximum displ.:     0.0292322 α      in ANC's #1, #7, #10, ...

........................................................................
.............................. CYCLE   24 ..............................
........................................................................
   1    -83.7107958 -0.837108E+02  0.152E-03    1.61       0.0  T
   2    -83.7107959 -0.497275E-07  0.661E-04    1.61      23.3  T
   3    -83.7107959 -0.807879E-08  0.375E-04    1.61      41.1  T
   4    -83.7107959 -0.866052E-09  0.176E-04    1.61      87.5  T
   5    -83.7107959 -0.104275E-08  0.276E-05    1.61     559.1  T
     SCC iter.                  ...        0 min,  0.019 sec
     gradient                   ...        0 min,  0.077 sec
 * total energy  :   -82.9335414 Eh     change       -0.1811028E-04 Eh
   gradient norm :     0.0028804 Eh/α   predicted    -0.1021155E-04 ( -43.61%)
   displ. norm   :     0.1451384 α      lambda       -0.6226919E-04
   maximum displ.:     0.0956044 α      in ANC's #1, #7, #12, ...

........................................................................
.............................. CYCLE   25 ..............................
........................................................................
   1    -83.7123937 -0.837124E+02  0.474E-03    1.61       0.0  T
   2    -83.7123943 -0.560841E-06  0.193E-03    1.61       8.0  T
   3    -83.7123943 -0.588857E-07  0.109E-03    1.61      14.1  T
   4    -83.7123943 -0.343880E-08  0.547E-04    1.61      28.2  T
   5    -83.7123944 -0.107635E-07  0.902E-05    1.61     171.1  T
   6    -83.7123944 -0.127500E-09  0.252E-05    1.61     613.0  T
     SCC iter.                  ...        0 min,  0.022 sec
     gradient                   ...        0 min,  0.077 sec
 * total energy  :   -82.9335871 Eh     change       -0.4568084E-04 Eh
   gradient norm :     0.0016907 Eh/α   predicted    -0.3179061E-04 ( -30.41%)
   displ. norm   :     0.2577193 α      lambda       -0.4179775E-04
   maximum displ.:     0.1706577 α      in ANC's #1, #7, #12, ...

........................................................................
.............................. CYCLE   26 ..............................
........................................................................
   1    -83.7125443 -0.837125E+02  0.415E-03    1.61       0.0  T
   2    -83.7125448 -0.496475E-06  0.171E-03    1.61       9.0  T
   3    -83.7125448 -0.242705E-07  0.893E-04    1.61      17.3  T
   4    -83.7125448 -0.670923E-09  0.316E-04    1.61      48.9  T
   5    -83.7125448 -0.256649E-08  0.117E-04    1.61     132.0  T
   6    -83.7125448 -0.464880E-09  0.355E-05    1.61     434.7  T
     SCC iter.                  ...        0 min,  0.022 sec
     gradient                   ...        0 min,  0.077 sec
 * total energy  :   -82.9336295 Eh     change       -0.4235357E-04 Eh
   gradient norm :     0.0039569 Eh/α   predicted    -0.2152417E-04 ( -49.18%)
   displ. norm   :     0.1125327 α      lambda       -0.3239406E-04
   maximum displ.:     0.0790421 α      in ANC's #1, #12, #3, ...

........................................................................
.............................. CYCLE   27 ..............................
........................................................................
   1    -83.7123973 -0.837124E+02  0.123E-03    1.61       0.0  T
   2    -83.7123973 -0.373372E-07  0.648E-04    1.61      23.8  T
   3    -83.7123973 -0.947881E-08  0.334E-04    1.61      46.3  T
   4    -83.7123973 -0.435577E-09  0.157E-04    1.61      98.3  T
   5    -83.7123973 -0.725692E-09  0.311E-05    1.61     495.5  T
     SCC iter.                  ...        0 min,  0.018 sec
     gradient                   ...        0 min,  0.077 sec
 * total energy  :   -82.9336584 Eh     change       -0.2889368E-04 Eh
   gradient norm :     0.0033096 Eh/α   predicted    -0.1640794E-04 ( -43.21%)
   displ. norm   :     0.2384639 α      lambda       -0.7338190E-04
   maximum displ.:     0.1701462 α      in ANC's #1, #12, #3, ...

........................................................................
.............................. CYCLE   28 ..............................
........................................................................
   1    -83.7115626 -0.837116E+02  0.340E-03    1.61       0.0  T
   2    -83.7115629 -0.307091E-06  0.148E-03    1.61      10.5  T
   3    -83.7115629 -0.538345E-07  0.757E-04    1.61      20.4  T
   4    -83.7115629 -0.155069E-08  0.373E-04    1.61      41.4  T
   5    -83.7115629 -0.470180E-08  0.732E-05    1.61     210.9  T
   6    -83.7115629 -0.863452E-10  0.224E-05    1.61     687.8  T
     SCC iter.                  ...        0 min,  0.022 sec
     gradient                   ...        0 min,  0.077 sec
 * total energy  :   -82.9337154 Eh     change       -0.5707441E-04 Eh
   gradient norm :     0.0021849 Eh/α   predicted    -0.3877789E-04 ( -32.06%)
   displ. norm   :     0.2246842 α      lambda       -0.5787567E-04
   maximum displ.:     0.1691011 α      in ANC's #1, #12, #3, ...

........................................................................
.............................. CYCLE   29 ..............................
........................................................................
   1    -83.7110491 -0.837110E+02  0.336E-03    1.61       0.0  T
   2    -83.7110495 -0.376252E-06  0.132E-03    1.61      11.7  T
   3    -83.7110496 -0.330130E-07  0.661E-04    1.61      23.4  T
   4    -83.7110496  0.372566E-09  0.294E-04    1.61      52.4  T
   5    -83.7110496 -0.330338E-08  0.107E-04    1.61     144.5  T
   6    -83.7110496 -0.288452E-09  0.237E-05    1.61     651.1  T
     SCC iter.                  ...        0 min,  0.022 sec
     gradient                   ...        0 min,  0.077 sec
 * total energy  :   -82.9337619 Eh     change       -0.4645665E-04 Eh
   gradient norm :     0.0025000 Eh/α   predicted    -0.3040084E-04 ( -34.56%)
   displ. norm   :     0.2828984 α      lambda       -0.6412506E-04
   maximum displ.:     0.2185224 α      in ANC's #1, #12, #3, ...

........................................................................
.............................. CYCLE   30 ..............................
........................................................................
   1    -83.7104431 -0.837104E+02  0.344E-03    1.61       0.0  T
   2    -83.7104435 -0.428545E-06  0.141E-03    1.61      10.9  T
   3    -83.7104435 -0.219951E-07  0.693E-04    1.61      22.3  T
   4    -83.7104435 -0.168862E-08  0.242E-04    1.61      63.7  T
   5    -83.7104435 -0.450839E-09  0.591E-05    1.61     261.1  T
   6    -83.7104435 -0.385256E-10  0.265E-05    1.61     582.7  T
     SCC iter.                  ...        0 min,  0.021 sec
     gradient                   ...        0 min,  0.082 sec
 * total energy  :   -82.9338124 Eh     change       -0.5048665E-04 Eh
   gradient norm :     0.0038893 Eh/α   predicted    -0.3463384E-04 ( -31.40%)
   displ. norm   :     0.2726989 α      lambda       -0.8954816E-04
   maximum displ.:     0.2190344 α      in ANC's #1, #12, #7, ...

........................................................................
.............................. CYCLE   31 ..............................
........................................................................
   1    -83.7119101 -0.837119E+02  0.616E-03    1.62       0.0  T
   2    -83.7119107 -0.674541E-06  0.309E-03    1.62       5.0  T
   3    -83.7119108 -0.213072E-07  0.147E-03    1.62      10.5  T
   4    -83.7119108 -0.146048E-07  0.647E-04    1.62      23.9  T
   5    -83.7119108 -0.141575E-07  0.164E-04    1.62      94.3  T
   6    -83.7119108 -0.734914E-09  0.468E-05    1.62     329.6  T
     SCC iter.                  ...        0 min,  0.021 sec
     gradient                   ...        0 min,  0.083 sec
 * total energy  :   -82.9338572 Eh     change       -0.4486934E-04 Eh
   gradient norm :     0.0045703 Eh/α   predicted    -0.4810401E-04 (   7.21%)
   displ. norm   :     0.5032222 α      lambda       -0.1214712E-03
   maximum displ.:     0.4002625 α      in ANC's #1, #12, #10, ...

........................................................................
.............................. CYCLE   32 ..............................
........................................................................
   1    -83.7084557 -0.837085E+02  0.116E-02    1.62       0.0  T
   2    -83.7084565 -0.838380E-06  0.610E-03    1.62       2.5  T
   3    -83.7084565  0.366781E-07  0.216E-03    1.62       7.2  T
   4    -83.7084566 -0.759809E-07  0.821E-04    1.62      18.8  T
   5    -83.7084566 -0.244884E-07  0.252E-04    1.62      61.3  T
   6    -83.7084566 -0.165748E-08  0.586E-05    1.62     263.2  T
   7    -83.7084566 -0.742091E-10  0.146E-05    1.62    1055.0  T
     SCC iter.                  ...        0 min,  0.024 sec
     gradient                   ...        0 min,  0.083 sec
 * total energy  :   -82.9338550 Eh     change        0.2257205E-05 Eh
   gradient norm :     0.0091286 Eh/α   predicted    -0.7611610E-04 (*******%)
   displ. norm   :     0.2022316 α      lambda       -0.1913105E-03
   maximum displ.:     0.1442809 α      in ANC's #1, #12, #8, ...

........................................................................
.............................. CYCLE   33 ..............................
........................................................................
   1    -83.7118206 -0.837118E+02  0.946E-03    1.62       0.0  T
   2    -83.7118215 -0.900292E-06  0.479E-03    1.62       3.2  T
   3    -83.7118215 -0.325407E-07  0.214E-03    1.62       7.2  T
   4    -83.7118215 -0.217349E-07  0.435E-04    1.62      35.5  T
   5    -83.7118215 -0.179378E-08  0.126E-04    1.62     122.6  T
   6    -83.7118215 -0.241002E-09  0.490E-05    1.62     314.8  T
     SCC iter.                  ...        0 min,  0.023 sec
     gradient                   ...        0 min,  0.084 sec
 * total energy  :   -82.9339441 Eh     change       -0.8909012E-04 Eh
   gradient norm :     0.0024543 Eh/α   predicted    -0.9957031E-04 (  11.76%)
   displ. norm   :     0.1262953 α      lambda       -0.4495918E-04
   maximum displ.:     0.1065538 α      in ANC's #1, #10, #7, ...

........................................................................
.............................. CYCLE   34 ..............................
........................................................................
   1    -83.7123485 -0.837123E+02  0.281E-03    1.62       0.0  T
   2    -83.7123488 -0.261471E-06  0.111E-03    1.62      14.0  T
   3    -83.7123488 -0.314233E-07  0.511E-04    1.62      30.2  T
   4    -83.7123488 -0.182624E-09  0.249E-04    1.62      61.9  T
   5    -83.7123488 -0.186995E-08  0.834E-05    1.62     185.1  T
   6    -83.7123488 -0.160369E-09  0.137E-05    1.62    1128.2  T
     SCC iter.                  ...        0 min,  0.023 sec
     gradient                   ...        0 min,  0.084 sec
 * total energy  :   -82.9339846 Eh     change       -0.4050927E-04 Eh
   gradient norm :     0.0015754 Eh/α   predicted    -0.2283964E-04 ( -43.62%)
   displ. norm   :     0.5793771 α      lambda       -0.1103068E-03
   maximum displ.:     0.4872095 α      in ANC's #1, #10, #7, ...

........................................................................
.............................. CYCLE   35 ..............................
........................................................................
   1    -83.7110890 -0.837111E+02  0.101E-02    1.61       0.0  T
   2    -83.7110923 -0.330058E-05  0.400E-03    1.61       3.9  T
   3    -83.7110926 -0.282236E-06  0.221E-03    1.61       7.0  T
   4    -83.7110926 -0.103403E-07  0.957E-04    1.61      16.1  T
   5    -83.7110926 -0.292017E-07  0.328E-04    1.61      47.1  T
   6    -83.7110926 -0.311105E-08  0.558E-05    1.61     276.6  T
   7    -83.7110926 -0.407567E-10  0.221E-05    1.61     698.4  T
     SCC iter.                  ...        0 min,  0.026 sec
     gradient                   ...        0 min,  0.056 sec
 * total energy  :   -82.9340701 Eh     change       -0.8547243E-04 Eh
   gradient norm :     0.0054107 Eh/α   predicted    -0.6338048E-04 ( -25.85%)
   displ. norm   :     0.0779107 α      lambda       -0.4478549E-04
   maximum displ.:     0.0651352 α      in ANC's #1, #7, #72, ...

........................................................................
.............................. CYCLE   36 ..............................
........................................................................
   1    -83.7117854 -0.837118E+02  0.341E-03    1.61       0.0  T
   2    -83.7117855 -0.957321E-07  0.176E-03    1.61       8.7  T
   3    -83.7117855 -0.799403E-09  0.916E-04    1.61      16.8  T
   4    -83.7117855 -0.102726E-07  0.323E-04    1.61      47.7  T
   5    -83.7117855 -0.451369E-08  0.726E-05    1.61     212.6  T
   6    -83.7117855 -0.756586E-10  0.172E-05    1.61     894.6  T
     SCC iter.                  ...        0 min,  0.024 sec
     gradient                   ...        0 min,  0.081 sec
 * total energy  :   -82.9341036 Eh     change       -0.3356037E-04 Eh
   gradient norm :     0.0031132 Eh/α   predicted    -0.2253365E-04 ( -32.86%)
   displ. norm   :     0.3143257 α      lambda       -0.6291546E-04
   maximum displ.:     0.2750607 α      in ANC's #1, #7, #12, ...

........................................................................
.............................. CYCLE   37 ..............................
........................................................................
   1    -83.7114515 -0.837115E+02  0.411E-03    1.62       0.0  T
   2    -83.7114520 -0.432822E-06  0.191E-03    1.62       8.1  T
   3    -83.7114521 -0.989689E-07  0.902E-04    1.62      17.1  T
   4    -83.7114521 -0.448944E-08  0.485E-04    1.62      31.8  T
   5    -83.7114521 -0.596528E-08  0.838E-05    1.62     184.2  T
   6    -83.7114521 -0.123279E-09  0.211E-05    1.62     732.2  T
     SCC iter.                  ...        0 min,  0.024 sec
     gradient                   ...        0 min,  0.081 sec
 * total energy  :   -82.9341514 Eh     change       -0.4778410E-04 Eh
   gradient norm :     0.0018931 Eh/α   predicted    -0.3456930E-04 ( -27.66%)
   displ. norm   :     0.5873322 α      lambda       -0.5377122E-04
   maximum displ.:     0.5230219 α      in ANC's #1, #7, #12, ...

........................................................................
.............................. CYCLE   38 ..............................
........................................................................
   1    -83.7094186 -0.837094E+02  0.665E-03    1.62       0.0  T
   2    -83.7094196 -0.107471E-05  0.298E-03    1.62       5.2  T
   3    -83.7094198 -0.155758E-06  0.154E-03    1.62      10.0  T
   4    -83.7094198  0.381642E-08  0.688E-04    1.62      22.4  T
   5    -83.7094198 -0.214973E-07  0.191E-04    1.62      80.8  T
   6    -83.7094198 -0.694129E-09  0.373E-05    1.62     413.6  T
     SCC iter.                  ...        0 min,  0.024 sec
     gradient                   ...        0 min,  0.082 sec
 * total energy  :   -82.9341868 Eh     change       -0.3544233E-04 Eh
   gradient norm :     0.0045223 Eh/α   predicted    -0.3101252E-04 ( -12.50%)
   displ. norm   :     0.0714852 α      lambda       -0.5169116E-04
   maximum displ.:     0.0554088 α      in ANC's #1, #8, #6, ...

........................................................................
.............................. CYCLE   39 ..............................
........................................................................
   1    -83.7116931 -0.837117E+02  0.564E-03    1.62       0.0  T
   2    -83.7116934 -0.330149E-06  0.278E-03    1.62       5.6  T
   3    -83.7116934 -0.231818E-07  0.143E-03    1.62      10.8  T
   4    -83.7116935 -0.784236E-08  0.485E-04    1.62      31.8  T
   5    -83.7116935 -0.895001E-08  0.111E-04    1.62     138.8  T
   6    -83.7116935 -0.323084E-09  0.255E-05    1.62     605.1  T
     SCC iter.                  ...        0 min,  0.024 sec
     gradient                   ...        0 min,  0.081 sec
 * total energy  :   -82.9342132 Eh     change       -0.2632600E-04 Eh
   gradient norm :     0.0029653 Eh/α   predicted    -0.2597616E-04 (  -1.33%)
   displ. norm   :     0.1387493 α      lambda       -0.2138329E-04
   maximum displ.:     0.1268977 α      in ANC's #1, #6, #12, ...

........................................................................
.............................. CYCLE   40 ..............................
........................................................................
   1    -83.7119596 -0.837120E+02  0.136E-03    1.62       0.0  T
   2    -83.7119596 -0.518314E-07  0.525E-04    1.62      29.4  T
   3    -83.7119596 -0.314284E-08  0.271E-04    1.62      57.0  T
   4    -83.7119596  0.150891E-09  0.128E-04    1.62     121.0  T
   5    -83.7119596 -0.412641E-09  0.290E-05    1.62     532.0  T
     SCC iter.                  ...        0 min,  0.020 sec
     gradient                   ...        0 min,  0.081 sec
 * total energy  :   -82.9342318 Eh     change       -0.1866642E-04 Eh
   gradient norm :     0.0022793 Eh/α   predicted    -0.1089660E-04 ( -41.62%)
   displ. norm   :     0.4575767 α      lambda       -0.5765327E-04
   maximum displ.:     0.4204710 α      in ANC's #1, #6, #12, ...

........................................................................
.............................. CYCLE   41 ..............................
........................................................................
   1    -83.7118803 -0.837119E+02  0.439E-03    1.62       0.0  T
   2    -83.7118808 -0.476151E-06  0.182E-03    1.62       8.5  T
   3    -83.7118808 -0.420234E-07  0.882E-04    1.62      17.5  T
   4    -83.7118808  0.131635E-09  0.336E-04    1.62      45.9  T
   5    -83.7118808 -0.261531E-08  0.917E-05    1.62     168.2  T
   6    -83.7118808 -0.245777E-09  0.370E-05    1.62     417.6  T
     SCC iter.                  ...        0 min,  0.024 sec
     gradient                   ...        0 min,  0.080 sec
 * total energy  :   -82.9342651 Eh     change       -0.3324770E-04 Eh
   gradient norm :     0.0023728 Eh/α   predicted    -0.3483392E-04 (   4.77%)
   displ. norm   :     0.1289080 α      lambda       -0.1979174E-04
   maximum displ.:     0.1159211 α      in ANC's #1, #6, #7, ...

........................................................................
.............................. CYCLE   42 ..............................
........................................................................
   1    -83.7126658 -0.837127E+02  0.206E-03    1.62       0.0  T
   2    -83.7126659 -0.101427E-06  0.959E-04    1.62      16.1  T
   3    -83.7126659 -0.845732E-08  0.496E-04    1.62      31.1  T
   4    -83.7126659 -0.552248E-09  0.139E-04    1.62     111.4  T
   5    -83.7126659 -0.312198E-09  0.518E-05    1.62     297.9  T
     SCC iter.                  ...        0 min,  0.020 sec
     gradient                   ...        0 min,  0.081 sec
 * total energy  :   -82.9342785 Eh     change       -0.1337105E-04 Eh
   gradient norm :     0.0017455 Eh/α   predicted    -0.1006588E-04 ( -24.72%)
   displ. norm   :     0.3436521 α      lambda       -0.1661700E-04
   maximum displ.:     0.3205455 α      in ANC's #1, #6, #12, ...
 * RMSD in coord.:     0.6992753 α      energy gain  -0.8481283E-03 Eh

generating ANC from model Hessian ...
Using Lindh-Hessian (1995)
 Shifting diagonal of input Hessian by   9.826496592556978E-003
 Lowest  eigenvalues of input Hessian
    0.000000    0.000000    0.000000    0.000000    0.000000    0.000000
    0.010000    0.010349    0.010580    0.010661    0.011262    0.011802
    0.012561    0.012797    0.015261    0.016337    0.017065    0.017364
 Highest eigenvalues
    2.029694    2.125499    2.182934    2.348866    2.377921    2.408439
 

........................................................................
.............................. CYCLE   43 ..............................
........................................................................
   1    -83.7125344 -0.837125E+02  0.259E-03    1.62       0.0  T
   2    -83.7125346 -0.244377E-06  0.110E-03    1.62      14.0  T
   3    -83.7125347 -0.183834E-07  0.537E-04    1.62      28.7  T
   4    -83.7125347 -0.118446E-08  0.187E-04    1.62      82.4  T
   5    -83.7125347 -0.252840E-09  0.435E-05    1.62     354.9  T
     SCC iter.                  ...        0 min,  0.020 sec
     gradient                   ...        0 min,  0.081 sec
 * total energy  :   -82.9342952 Eh     change       -0.1671003E-04 Eh
   gradient norm :     0.0013431 Eh/α   predicted     0.0000000E+00 (-100.00%)
   displ. norm   :     0.0240868 α      lambda       -0.5264963E-05
   maximum displ.:     0.0113826 α      in ANC's #6, #1, #8, ...

........................................................................
.............................. CYCLE   44 ..............................
........................................................................
   1    -83.7127850 -0.837128E+02  0.137E-03    1.62       0.0  T
   2    -83.7127851 -0.491074E-07  0.531E-04    1.62      29.1  T
   3    -83.7127851 -0.342780E-08  0.272E-04    1.62      56.7  T
   4    -83.7127851 -0.784439E-11  0.898E-05    1.62     171.9  T
   5    -83.7127851 -0.119854E-09  0.243E-05    1.62     635.6  T
     SCC iter.                  ...        0 min,  0.020 sec
     gradient                   ...        0 min,  0.081 sec
 * total energy  :   -82.9343023 Eh     change       -0.7098081E-05 Eh
   gradient norm :     0.0005765 Eh/α   predicted    -0.3055082E-05 ( -56.96%)
   displ. norm   :     0.0670807 α      lambda       -0.9886303E-05
   maximum displ.:     0.0322111 α      in ANC's #6, #1, #8, ...

........................................................................
.............................. CYCLE   45 ..............................
........................................................................
   1    -83.7127421 -0.837127E+02  0.247E-03    1.61       0.0  T
   2    -83.7127423 -0.210671E-06  0.890E-04    1.62      17.3  T
   3    -83.7127424 -0.192992E-07  0.359E-04    1.62      43.0  T
   4    -83.7127424 -0.309043E-09  0.223E-04    1.62      69.3  T
   5    -83.7127424 -0.102990E-08  0.663E-05    1.62     232.6  T
   6    -83.7127424 -0.110404E-09  0.124E-05    1.62    1246.8  T
     SCC iter.                  ...        0 min,  0.024 sec
     gradient                   ...        0 min,  0.081 sec
 * total energy  :   -82.9343118 Eh     change       -0.9565645E-05 Eh
   gradient norm :     0.0010045 Eh/α   predicted    -0.4953485E-05 ( -48.22%)
   displ. norm   :     0.0600202 α      lambda       -0.5385600E-05
   maximum displ.:     0.0293855 α      in ANC's #6, #1, #8, ...

........................................................................
.............................. CYCLE   46 ..............................
........................................................................
   1    -83.7125742 -0.837126E+02  0.107E-03    1.61       0.0  T
   2    -83.7125742 -0.348027E-07  0.550E-04    1.62      28.0  T
   3    -83.7125742 -0.108961E-07  0.253E-04    1.61      60.9  T
   4    -83.7125742 -0.748059E-09  0.122E-04    1.61     126.8  T
   5    -83.7125742 -0.216176E-09  0.324E-05    1.61     476.8  T
     SCC iter.                  ...        0 min,  0.020 sec
     gradient                   ...        0 min,  0.081 sec
 * total energy  :   -82.9343170 Eh     change       -0.5214369E-05 Eh
   gradient norm :     0.0011817 Eh/α   predicted    -0.2698105E-05 ( -48.26%)
   displ. norm   :     0.0651658 α      lambda       -0.5040546E-05
   maximum displ.:     0.0338909 α      in ANC's #1, #6, #8, ...

........................................................................
.............................. CYCLE   47 ..............................
........................................................................
   1    -83.7124731 -0.837125E+02  0.107E-03    1.61       0.0  T
   2    -83.7124732 -0.352990E-07  0.539E-04    1.62      28.6  T
   3    -83.7124732 -0.116589E-07  0.276E-04    1.62      55.9  T
   4    -83.7124732 -0.115560E-08  0.126E-04    1.62     122.5  T
   5    -83.7124732 -0.123336E-09  0.249E-05    1.62     619.3  T
     SCC iter.                  ...        0 min,  0.020 sec
     gradient                   ...        0 min,  0.081 sec
 * total energy  :   -82.9343220 Eh     change       -0.4948109E-05 Eh
   gradient norm :     0.0007861 Eh/α   predicted    -0.2526123E-05 ( -48.95%)
   displ. norm   :     0.0473735 α      lambda       -0.3425176E-05
   maximum displ.:     0.0283414 α      in ANC's #1, #6, #4, ...

   *** GEOMETRY OPTIMIZATION CONVERGED AFTER 47 ITERATIONS ***

------------------------------------------------------------------------
 total energy gain   :        -0.0240078 Eh      -15.0651 kcal/mol
 total RMSD          :         1.1252542 a0        0.5955 Å
 total power (kW/mol):        -1.3411136 (step)  -10.0257 (real)
------------------------------------------------------------------------

 ANCopt (total)                0 d,  0 h,  0 min,  6.287 sec
 optimizer setup                ...        0 min,  0.001 sec (  0.011%)
 model hessian                  ...        0 min,  0.066 sec (  1.043%)
 ANC generation                 ...        0 min,  0.007 sec (  0.112%)
 coordinate transformation      ...        0 min,  0.002 sec (  0.028%)
 single point calculation       ...        0 min,  6.185 sec ( 98.370%)
 optimization log               ...        0 min,  0.013 sec (  0.214%)
 hessian update                 ...        0 min,  0.002 sec (  0.024%)
 rational function              ...        0 min,  0.008 sec (  0.123%)

================
 final structure:
================
42
 xtb: 6.5.1 (579679a)
C            6.48381142636148       -0.67649402509449        0.99117885403128
C            5.76317312604736        0.02364812419234       -0.09502524292540
N            6.27433244378362        0.68942755014704       -1.08329107515225
N            5.22796215529539        1.16469589162859       -1.81808296552233
C            4.14349222899655        0.75747565355269       -1.23404232942716
C            2.73792607232236        1.03077301255168       -1.64388743577952
O            2.48366474852631        1.73679987523779       -2.61126049035093
N            1.83782354460703        0.44106790426118       -0.84804680947472
C            0.39262372335861        0.55548671726950       -1.01537322579165
C           -0.03842034362202        2.02216360203119       -0.89693130990081
C           -0.02804812171097       -0.03058036242240       -2.37180485109777
C           -0.26093393996644       -0.26740270934715        0.08604066930434
N           -1.55812496142664       -0.08490352724903        0.23677425926150
C           -2.17396243414956       -0.83141095218770        1.20610815191859
C           -3.55460354031592       -0.64303480850550        1.46805249345808
O           -4.28453079808277       -1.15316133702836        2.26387231531206
O           -4.19472206129409        0.47001293770710        0.62949611477694
C           -5.45496587492802        0.91110604281783        1.19656733080895
C           -4.26127156508622        0.20279393902277       -0.79817017197438
C           -1.45754440046107       -1.74872539968980        1.97164847472955
O           -1.99028832199444       -2.50341200698355        2.92608505268379
C            0.00203861301729       -1.89932643930374        1.73678417171959
O            0.67972562743852       -2.69482855286719        2.38587859467331
N            0.51549891658896       -1.09933724331270        0.76460123712629
O            4.42089318085968        0.02657749047517       -0.13221221742599
H            6.22361999514781       -0.23601314928157        1.95367373846572
H            6.19877783269884       -1.72794740535294        1.01340644415292
H            7.55583400489326       -0.59128863402360        0.83139707692442
H            2.13966758285303       -0.16171009997574       -0.08768126301175
H            0.32333214283587        2.44263063941424        0.04066762815654
H            0.35531505992779        2.60513513290806       -1.72811756997578
H           -1.12553883922851        2.07333713498561       -0.90895204674962
H           -1.11383104662617       -0.01013034842685       -2.44547632813476
H            0.39462890432461        0.55444468566947       -3.18718674400334
H            0.31269711820801       -1.06201384965863       -2.45445114655450
H           -6.19956871298746        0.12059817371485        1.10399090987816
H           -5.26696780669386        1.14697241124700        2.24146099761484
H           -5.75265379009054        1.79917400684381        0.64559944810390
H           -3.24172721305061       -0.00231689796193       -1.12221919880419
H           -4.63815584400154        1.10801124560865       -1.26859863212130
H           -4.92443069179104       -0.64139344561263       -0.98548204737680
H           -2.94654914059627       -2.36458597701737        3.04301113846765
 
 Bond Distances (Angstroems)
 ---------------------------
C1-C2=1.4796         C1-H26=1.0900        C1-H27=1.0896        C1-H28=1.0872        C2-C1=1.4796         C2-N3=1.2966         
C2-O25=1.3428        N3-C2=1.2966         N3-N4=1.3641         N4-N3=1.3641         N4-C5=1.2973         C5-N4=1.2973         
C5-C6=1.4894         C5-O25=1.3510        C6-C5=1.4894         C6-O7=1.2243         C6-N8=1.3384         O7-C6=1.2243         
N8-C6=1.3384         N8-C9=1.4593         N8-H29=1.0162        C9-N8=1.4593         C9-C10=1.5333        C9-C11=1.5363        
C9-C12=1.5223        C10-C9=1.5333        C10-H30=1.0894       C10-H31=1.0889       C10-H32=1.0884       C11-C9=1.5363        
C11-H33=1.0885       C11-H34=1.0889       C11-H35=1.0894       C12-C9=1.5223        C12-N13=1.3186       C12-N24=1.3249       
N13-C12=1.3186       N13-C14=1.3697       C14-N13=1.3697       C14-C15=1.4178       C14-C20=1.3931       C15-C14=1.4178       
C15-O16=1.1943       C15-O17=1.5336       O16-C15=1.1943       O17-C15=1.5336       O17-C18=1.4506       O17-C19=1.4540       
C18-O17=1.4506       C18-H36=1.0899       C18-H37=1.0876       C18-H38=1.0867       C19-O17=1.4540       C19-H39=1.0893       
C19-H40=1.0875       C19-H41=1.0897       C20-C14=1.3931       C20-O21=1.3283       C20-C22=1.4860       O21-C20=1.3283       
O21-H42=0.9733       C22-C20=1.4860       C22-O23=1.2302       C22-N24=1.3597       O23-C22=1.2302       N24-C12=1.3249       
N24-C22=1.3597       O25-C2=1.3428        O25-C5=1.3510        H26-C1=1.0900        H27-C1=1.0896        H28-C1=1.0872        
H29-N8=1.0162        H30-C10=1.0894       H31-C10=1.0889       H32-C10=1.0884       H33-C11=1.0885       H34-C11=1.0889       
H35-C11=1.0894       H36-C18=1.0899       H37-C18=1.0876       H38-C18=1.0867       H39-C19=1.0893       H40-C19=1.0875       
H41-C19=1.0897       H42-O21=0.9733       
 C  H  Rav=1.0887 sigma=0.0010  Rmin=1.0867  Rmax=1.0900    15
 C  C  Rav=1.4822 sigma=0.0491  Rmin=1.3931  Rmax=1.5363     8
 N  H  Rav=1.0162 sigma=0.0000  Rmin=1.0162  Rmax=1.0162     1
 N  C  Rav=1.3456 sigma=0.0496  Rmin=1.2966  Rmax=1.4593     8
 N  N  Rav=1.3641 sigma=0.0000  Rmin=1.3641  Rmax=1.3641     1
 O  H  Rav=0.9733 sigma=0.0000  Rmin=0.9733  Rmax=0.9733     1
 O  C  Rav=1.3455 sigma=0.1102  Rmin=1.1943  Rmax=1.5336     9
 
 selected bond angles (degree)
 --------------------
H26-C1-C2=109.92               H27-C1-C2=110.13               H27-C1-H26=108.03              H28-C1-C2=109.59               
H28-C1-H26=109.48              H28-C1-H27=109.67              N3-C2-C1=127.62                O25-C2-C1=120.54               
O25-C2-N3=111.83               N4-N3-C2=106.68                C5-N4-N3=106.82                C6-C5-N4=127.40                
O25-C5-N4=111.43               O25-C5-C6=121.16               O7-C6-C5=121.28                N8-C6-C5=112.97                
N8-C6-O7=125.75                C9-N8-C6=124.28                H29-N8-C6=120.43               H29-N8-C9=115.24               
C10-C9-N8=110.15               C11-C9-N8=110.03               C11-C9-C10=110.86              C12-C9-N8=107.45               
C12-C9-C10=109.91              C12-C9-C11=108.36              H30-C10-C9=110.02              H31-C10-C9=110.58              
H31-C10-H30=109.28             H32-C10-C9=108.96              H32-C10-H30=108.85             H32-C10-H31=109.12             
 
 selected dihedral angles (degree)
 ---------------------------------
N3-C2-C1-H26=118.18           N3-C2-C1-H27=237.09           N3-C2-C1-H28=357.81           O25-C2-C1-H26=298.65          
O25-C2-C1-H27= 57.56          O25-C2-C1-H28=178.29          N4-N3-C2-C1=180.56            N4-N3-C2-O25=  0.13           
C5-N4-N3-C2=359.89            C6-C5-N4-N3=179.16            O25-C5-N4-N3=  0.06           O7-C6-C5-N4=358.04            
O7-C6-C5-O25=177.06           N8-C6-C5-N4=178.54            N8-C6-C5-O25=357.56           C9-N8-C6-C5=179.34            
C9-N8-C6-O7=359.87            H29-N8-C6-C5=356.91           H29-N8-C6-O7=177.43           C10-C9-N8-C6=299.38           
C10-C9-N8-H29=121.70          C11-C9-N8-C6= 61.90           C11-C9-N8-H29=244.22          C12-C9-N8-C6=179.67           
C12-C9-N8-H29=  1.99          H30-C10-C9-N8=305.74          H30-C10-C9-C11=183.72         H30-C10-C9-C12= 63.94         
H31-C10-C9-N8= 66.55          H31-C10-C9-C11=304.53         H31-C10-C9-C12=184.76         H32-C10-C9-N8=186.48          
H32-C10-C9-C11= 64.46         H32-C10-C9-C12=304.69         
           -------------------------------------------------
          |                Final Singlepoint                |
           -------------------------------------------------

          ...................................................
          :                      SETUP                      :
          :.................................................:
          :  # basis functions                 134          :
          :  # atomic orbitals                 134          :
          :  # shells                           84          :
          :  # electrons                       134          :
          :  # halogen bonds                     0          :
          :  max. iterations                   250          :
          :  Hamiltonian                  GFN1-xTB          :
          :  restarted?                      false          :
          :  GBSA solvation                   true          :
          :  PC potential                    false          :
          :  electronic temp.          300.0000000     K    :
          :  accuracy                    1.0000000          :
          :  -> integral cutoff          0.2500000E+02      :
          :  -> integral neglect         0.1000000E-07      :
          :  -> SCF convergence          0.1000000E-05 Eh   :
          :  -> wf. convergence          0.2000000E-04 e    :
          :  Broyden damping             0.4000000          :
          ...................................................

 iter      E             dE          RMSdq      gap      omega  full diag
   1    -83.7124732 -0.837125E+02  0.577E-06    1.62       0.0  T
   2    -83.7124732 -0.753175E-12  0.263E-06    1.62    5875.1  T
   3    -83.7124732 -0.710543E-13  0.131E-06    1.62   11815.1  T

   *** convergence criteria satisfied after 3 iterations ***

         #    Occupation            Energy/Eh            Energy/eV
      -------------------------------------------------------------
         1        2.0000           -0.9049663             -24.6254
       ...           ...                  ...                  ...
        61        2.0000           -0.4565742             -12.4240
        62        2.0000           -0.4525626             -12.3149
        63        2.0000           -0.4453333             -12.1181
        64        2.0000           -0.4357598             -11.8576
        65        2.0000           -0.4306955             -11.7198
        66        2.0000           -0.4020069             -10.9392
        67        2.0000           -0.4018048             -10.9337 (HOMO)
        68                         -0.3424452              -9.3184 (LUMO)
        69                         -0.3019702              -8.2170
        70                         -0.2576799              -7.0118
        71                         -0.2527738              -6.8783
        72                         -0.2332903              -6.3482
       ...                                ...                  ...
       134                          0.7456707              20.2907
      -------------------------------------------------------------
                  HL-Gap            0.0593596 Eh            1.6153 eV
             Fermi-level           -0.3717697 Eh          -10.1164 eV

 SCC (total)                   0 d,  0 h,  0 min,  0.132 sec
 SCC setup                      ...        0 min,  0.002 sec (  1.394%)
 Dispersion                     ...        0 min,  0.000 sec (  0.267%)
 classical contributions        ...        0 min,  0.000 sec (  0.090%)
 integral evaluation            ...        0 min,  0.035 sec ( 26.360%)
 iterations                     ...        0 min,  0.013 sec (  9.567%)
 molecular gradient             ...        0 min,  0.081 sec ( 61.514%)
 printout                       ...        0 min,  0.001 sec (  0.758%)

         :::::::::::::::::::::::::::::::::::::::::::::::::::::
         ::                     SUMMARY                     ::
         :::::::::::::::::::::::::::::::::::::::::::::::::::::
         :: total energy             -82.934321995155 Eh    ::
         :: total w/o Gsasa/hb       -82.911370904295 Eh    ::
         :: gradient norm              0.000786547208 Eh/a0 ::
         :: HOMO-LUMO gap              1.615258021367 eV    ::
         ::.................................................::
         :: SCC energy               -83.712473164172 Eh    ::
         :: -> electrostatic           0.385983091935 Eh    ::
         :: -> Gsolv                  -0.077507641309 Eh    ::
         ::    -> Gelec               -0.054556550449 Eh    ::
         ::    -> Gsasa               -0.024533998604 Eh    ::
         ::    -> Ghb                 -0.006041371260 Eh    ::
         ::    -> Gshift               0.007624279005 Eh    ::
         :: repulsion energy           0.804223323856 Eh    ::
         :: dispersion energy         -0.026072154839 Eh    ::
         :: halogen bond corr.         0.000000000000 Eh    ::
         :: add. restraining           0.000000000000 Eh    ::
         :: total charge               0.000000000000 e     ::
         :::::::::::::::::::::::::::::::::::::::::::::::::::::

           -------------------------------------------------
          |                Property Printout                |
           -------------------------------------------------

    * Orbital Energies and Occupations

         #    Occupation            Energy/Eh            Energy/eV
      -------------------------------------------------------------
         1        2.0000           -0.9049663             -24.6254
       ...           ...                  ...                  ...
        55        2.0000           -0.4999910             -13.6054
        56        2.0000           -0.4910533             -13.3622
        57        2.0000           -0.4890988             -13.3091
        58        2.0000           -0.4747391             -12.9183
        59        2.0000           -0.4630255             -12.5996
        60        2.0000           -0.4580190             -12.4633
        61        2.0000           -0.4565742             -12.4240
        62        2.0000           -0.4525626             -12.3149
        63        2.0000           -0.4453333             -12.1181
        64        2.0000           -0.4357598             -11.8576
        65        2.0000           -0.4306955             -11.7198
        66        2.0000           -0.4020069             -10.9392
        67        2.0000           -0.4018048             -10.9337 (HOMO)
        68                         -0.3424452              -9.3184 (LUMO)
        69                         -0.3019702              -8.2170
        70                         -0.2576799              -7.0118
        71                         -0.2527738              -6.8783
        72                         -0.2332903              -6.3482
        73                         -0.1902384              -5.1767
        74                         -0.1686950              -4.5904
        75                         -0.1589992              -4.3266
        76                         -0.1416578              -3.8547
        77                         -0.1411569              -3.8411
        78                         -0.1281690              -3.4877
       ...                                ...                  ...
       134                          0.7456707              20.2907
      -------------------------------------------------------------
                  HL-Gap            0.0593596 Eh            1.6153 eV
             Fermi-level           -0.3717697 Eh          -10.1164 eV

  Mulliken/CM5 charges         n(s)   n(p)   n(d)
     1C    -0.11050 -0.24790   1.011  3.099  0.000
     2C     0.38895  0.49767   1.006  2.605  0.000
     3N    -0.27434 -0.38206   1.565  3.709  0.000
     4N    -0.23102 -0.33477   1.567  3.664  0.000
     5C     0.33050  0.45627   1.012  2.658  0.000
     6C     0.46222  0.57270   0.974  2.564  0.000
     7O    -0.59344 -0.63743   1.729  4.865  0.000
     8N    -0.32824 -0.67757   1.431  3.898  0.000
     9C     0.15289  0.19541   1.062  2.785  0.000
    10C    -0.09993 -0.23835   1.016  3.084  0.000
    11C    -0.09922 -0.23824   1.018  3.081  0.000
    12C     0.29682  0.45317   1.018  2.685  0.000
    13N    -0.43968 -0.63282   1.541  3.899  0.000
    14C     0.05904  0.13381   1.023  2.918  0.000
    15C     0.53981  0.59457   1.030  2.431  0.000
    16O    -0.49152 -0.55480   1.720  4.771  0.000
    17O    -0.27342 -0.39628   1.683  4.590  0.000
    18C     0.14529  0.02049   1.004  2.851  0.000
    19C     0.14161  0.01725   1.008  2.850  0.000
    20C     0.25031  0.28502   1.051  2.699  0.000
    21O    -0.48974 -0.68299   1.689  4.801  0.000
    22C     0.45612  0.56564   0.979  2.565  0.000
    23O    -0.61852 -0.65239   1.735  4.884  0.000
    24N    -0.46011 -0.64172   1.535  3.925  0.000
    25O    -0.35660 -0.41270   1.696  4.660  0.000
    26H     0.07721  0.13166   0.923  0.000  0.000
    27H     0.07729  0.13181   0.923  0.000  0.000
    28H     0.06695  0.12280   0.933  0.000  0.000
    29H     0.25389  0.46842   0.746  0.000  0.000
    30H     0.03813  0.09509   0.962  0.000  0.000
    31H     0.05028  0.10971   0.950  0.000  0.000
    32H     0.03605  0.09504   0.964  0.000  0.000
    33H     0.03596  0.09276   0.964  0.000  0.000
    34H     0.05273  0.11215   0.947  0.000  0.000
    35H     0.04095  0.09786   0.959  0.000  0.000
    36H     0.08205  0.14476   0.918  0.000  0.000
    37H     0.09403  0.15848   0.906  0.000  0.000
    38H     0.08481  0.14580   0.915  0.000  0.000
    39H     0.08394  0.15644   0.916  0.000  0.000
    40H     0.08590  0.14688   0.914  0.000  0.000
    41H     0.07698  0.13732   0.923  0.000  0.000
    42H     0.40559  0.59103   0.594  0.000  0.000

Wiberg/Mayer (AO) data.
largest (>0.10) Wiberg bond orders for each atom

 ---------------------------------------------------------------------------
     #   Z sym  total        # sym  WBO       # sym  WBO       # sym  WBO
 ---------------------------------------------------------------------------
     1   6 C    3.987 --     2 C    1.031    28 H    0.983    27 H    0.965
                            26 H    0.963
     2   6 C    3.871 --     3 N    1.615    25 O    1.074     1 C    1.031
     3   7 N    2.980 --     2 C    1.615     4 N    1.194
     4   7 N    2.996 --     5 C    1.625     3 N    1.194
     5   6 C    3.869 --     4 N    1.625    25 O    1.048     6 C    0.986
     6   6 C    3.923 --     7 O    1.561     8 N    1.295     5 C    0.986
     7   8 O    1.882 --     6 C    1.561     8 N    0.184
     8   7 N    3.380 --     6 C    1.295     9 C    0.929    29 H    0.873
                             7 O    0.184
     9   6 C    3.935 --    10 C    0.987    11 C    0.978    12 C    0.975
                             8 N    0.929
    10   6 C    3.991 --     9 C    0.987    30 H    0.986    32 H    0.984
                            31 H    0.982
    11   6 C    3.991 --    35 H    0.986    33 H    0.984    34 H    0.981
                             9 C    0.978
    12   6 C    3.951 --    13 N    1.443    24 N    1.378     9 C    0.975
    13   7 N    3.013 --    12 C    1.443    14 C    1.175
    14   6 C    3.957 --    20 C    1.354    15 C    1.185    13 N    1.175
    15   6 C    3.796 --    16 O    1.726    14 C    1.185    17 O    0.703
    16   8 O    2.063 --    15 C    1.726
    17   8 O    2.481 --    18 C    0.833    19 C    0.822    15 C    0.703
    18   6 C    3.806 --    36 H    0.980    38 H    0.978    37 H    0.976
                            17 O    0.833
    19   6 C    3.796 --    41 H    0.982    40 H    0.978    39 H    0.961
                            17 O    0.822
    20   6 C    3.887 --    14 C    1.354    21 O    1.144    22 C    1.026
    21   8 O    2.128 --    20 C    1.144    42 H    0.800
    22   6 C    3.929 --    23 O    1.548    24 N    1.225    20 C    1.026
    23   8 O    1.846 --    22 C    1.548    24 N    0.132
    24   7 N    3.019 --    12 C    1.378    22 C    1.225    23 O    0.132
    25   8 O    2.317 --     2 C    1.074     5 C    1.048
    26   1 H    0.997 --     1 C    0.963
    27   1 H    0.997 --     1 C    0.965
    28   1 H    0.999 --     1 C    0.983
    29   1 H    0.964 --     8 N    0.873
    30   1 H    1.004 --    10 C    0.986
    31   1 H    1.011 --    10 C    0.982
    32   1 H    1.015 --    10 C    0.984
    33   1 H    1.008 --    11 C    0.984
    34   1 H    1.010 --    11 C    0.981
    35   1 H    1.003 --    11 C    0.986
    36   1 H    0.998 --    18 C    0.980
    37   1 H    0.999 --    18 C    0.976
    38   1 H    0.997 --    18 C    0.978
    39   1 H    1.031 --    19 C    0.961
    40   1 H    0.997 --    19 C    0.978
    41   1 H    0.994 --    19 C    0.982
    42   1 H    0.850 --    21 O    0.800
 ---------------------------------------------------------------------------

Topologies differ in total number of bonds
Writing topology from bond orders to xtbtopo.mol

 dipole moment from electron density (au)
     X       Y       Z   
  -7.9212   1.0415   0.9332  total (Debye):   20.445

           -------------------------------------------------
          |                Geometry Summary                 |
           -------------------------------------------------

      molecular mass/u    :      351.3152409
   center of mass at/Å    :        0.4037139      -0.1490418       0.1502194
  moments of inertia/u·Å² :        0.1147181E+04   0.4700391E+04   0.5629922E+04
rotational constants/cm⁻¹ :        0.1469483E-01   0.3586432E-02   0.2994293E-02

 * 39 selected distances

     #   Z          #   Z                                           value/Å
     1   6 C        2   6 C                                       1.4796480
     2   6 C        3   7 N                                       1.2966170
     4   7 N        5   6 C                                       1.2973076
     6   6 C        7   8 O                                       1.2243095
     6   6 C        8   7 N                                       1.3383943
     8   7 N        9   6 C                                       1.4593467
     9   6 C       10   6 C                                       1.5332870
     9   6 C       11   6 C                                       1.5363420 (max)
    12   6 C       13   7 N                                       1.3186097
    13   7 N       14   6 C                                       1.3697217
    14   6 C       15   6 C                                       1.4178401
    15   6 C       16   8 O                                       1.1942999
    15   6 C       17   8 O                                       1.5335593
    17   8 O       18   6 C                                       1.4506370
    17   8 O       19   6 C                                       1.4539829
    14   6 C       20   6 C                                       1.3931163
    20   6 C       21   8 O                                       1.3282761
    22   6 C       23   8 O                                       1.2302061
    12   6 C       24   7 N                                       1.3249180
    22   6 C       24   7 N                                       1.3596927
     2   6 C       25   8 O                                       1.3427983
     5   6 C       25   8 O                                       1.3509972
     1   6 C       26   1 H                                       1.0900090
     1   6 C       27   1 H                                       1.0896296
     1   6 C       28   1 H                                       1.0872087
     8   7 N       29   1 H                                       1.0161728
    10   6 C       30   1 H                                       1.0893803
    10   6 C       31   1 H                                       1.0889234
    10   6 C       32   1 H                                       1.0883888
    11   6 C       33   1 H                                       1.0884716
    11   6 C       34   1 H                                       1.0889252
    11   6 C       35   1 H                                       1.0894003
    18   6 C       36   1 H                                       1.0899113
    18   6 C       37   1 H                                       1.0875565
    18   6 C       38   1 H                                       1.0866686
    19   6 C       39   1 H                                       1.0892884
    19   6 C       40   1 H                                       1.0875492
    19   6 C       41   1 H                                       1.0897331
    21   8 O       42   1 H                                       0.9733341 (min)

 * 6 distinct bonds (by element types)

   Z      Z             #   av. dist./Å        max./Å        min./Å
   1 H    6 C          15     1.0887363     1.0900090     1.0866686
   6 C    6 C           5     1.4720467     1.5363420     1.3931163
   1 H    7 N           1     1.0161728     1.0161728     1.0161728
   6 C    7 N           8     1.3455760     1.4593467     1.2966170
   1 H    8 O           1     0.9733341     0.9733341     0.9733341
   6 C    8 O           9     1.3454518     1.5335593     1.1942999


optimized geometry written to: xtbopt.xyz


           -------------------------------------------------
          | TOTAL ENERGY              -82.934321995155 Eh   |
          | GRADIENT NORM               0.000786547208 Eh/α |
          | HOMO-LUMO GAP               1.615258021367 eV   |
           -------------------------------------------------

------------------------------------------------------------------------
 * finished run on 2023/06/20 at 18:28:24.039     
------------------------------------------------------------------------
 total:
 * wall-time:     0 d,  0 h,  0 min,  6.703 sec
 *  cpu-time:     0 d,  0 h,  0 min,  6.624 sec
 * ratio c/w:     0.988 speedup
 SCF:
 * wall-time:     0 d,  0 h,  0 min,  0.161 sec
 *  cpu-time:     0 d,  0 h,  0 min,  0.161 sec
 * ratio c/w:     0.998 speedup
 ANC optimizer:
 * wall-time:     0 d,  0 h,  0 min,  6.425 sec
 *  cpu-time:     0 d,  0 h,  0 min,  6.412 sec
 * ratio c/w:     0.998 speedup

