42
 energy: -83.018442116571 gnorm: 0.000361711522 xtb: 6.5.1 (579679a)
C            5.55728601222536       -2.19526761143341        0.25741761741508
O            4.33458253067902       -1.45318849755935        0.20522041303267
C            4.29851129211658       -0.42640063634466       -0.63251517477180
O            5.24044553865799       -0.10822104145345       -1.33810404030296
C            3.01318967528162        0.30819303959783       -0.62938792893663
N            2.01433202080238       -0.16512858286559        0.17083919810105
C            0.87350973912881        0.44394814348328        0.23152670089051
C           -0.14853868940846       -0.18392131190993        1.17006913756248
C           -0.18259126045275        0.57483428399613        2.50105368234890
C            0.23328394911135       -1.64966582528779        1.42782815498970
N           -1.48536244562863       -0.16108362333357        0.57716351094725
C           -1.70596252394203       -0.62092113063656       -0.67477728532359
O           -0.82737871184474       -0.93352126647863       -1.46097017720033
C           -3.14618342044998       -0.67235769018726       -1.02267902242034
N           -3.68069169377032       -1.02127586365049       -2.15129682370096
N           -5.03042163528295       -0.91774458846699       -1.99570697575400
C           -5.23718469151699       -0.51264785129195       -0.78142065764696
C           -6.53181934185757       -0.24454014103373       -0.11929344482191
O           -4.08575091004333       -0.33702402734646       -0.11203544650208
N            0.63450205955105        1.59799336298557       -0.46509687832085
C           -0.59830864780481        2.38080135212111       -0.37828268910451
C            1.55698244403004        2.13184411761403       -1.36403881877721
O            1.28333895131203        3.12933685373598       -2.01670707845087
C            2.82879612569702        1.41620380776731       -1.41724888878338
O            3.75101099505660        1.91476045312562       -2.24538812827740
H            6.38478331694045       -1.53350598060239        0.52254825375828
H            5.42393365906815       -2.96032333998815        1.01921832571180
H            5.75793373217289       -2.65450550156379       -0.71316972992137
H           -0.87649596013680        0.08553830789636        3.18200133673916
H           -0.49792936382105        1.60664870147247        2.36594488516255
H            0.81120700933874        0.56802430305692        2.94643083217281
H            1.18845748498597       -1.69700134785957        1.94710023623273
H            0.31701633287565       -2.18711565618415        0.48409301843174
H           -0.53353932694714       -2.11777171440492        2.04170326016224
H           -2.26632034619862       -0.02708331857214        1.19554369531247
H           -6.61872731804909        0.81784417872318        0.10880951464504
H           -6.58834136114459       -0.79405721086811        0.81959415318982
H           -7.34845639748648       -0.54341101510759       -0.77213975836045
H           -1.15565714055150        2.12669474954767        0.51312151475654
H           -1.20867912716498        2.19535533258961       -1.26301159387118
H           -0.32615328442344        3.43617160384624       -0.34893274925273
H            4.57739372889895        1.38349518287602       -2.19578815105815
