      -----------------------------------------------------------      
     |                   =====================                   |     
     |                           x T B                           |     
     |                   =====================                   |     
     |                         S. Grimme                         |     
     |          Mulliken Center for Theoretical Chemistry        |     
     |                    University of Bonn                     |     
      -----------------------------------------------------------      

   * xtb version 6.5.1 (579679a) compiled by 'ehlert@majestix' on 2022-07-11

   xtb is free software: you can redistribute it and/or modify it under
   the terms of the GNU Lesser General Public License as published by
   the Free Software Foundation, either version 3 of the License, or
   (at your option) any later version.
   
   xtb is distributed in the hope that it will be useful,
   but WITHOUT ANY WARRANTY; without even the implied warranty of
   MERCHANTABILITY or FITNESS FOR A PARTICULAR PURPOSE.  See the
   GNU Lesser General Public License for more details.
   
   Cite this work as:
   * C. Bannwarth, E. Caldeweyher, S. Ehlert, A. Hansen, P. Pracht,
     J. Seibert, S. Spicher, S. Grimme, WIREs Comput. Mol. Sci., 2020, 11,
     e01493. DOI: 10.1002/wcms.1493
   
   for GFN2-xTB:
   * C. Bannwarth, S. Ehlert and S. Grimme., J. Chem. Theory Comput., 2019,
     15, 1652-1671. DOI: 10.1021/acs.jctc.8b01176
   for GFN1-xTB:
   * S. Grimme, C. Bannwarth, P. Shushkov, J. Chem. Theory Comput., 2017,
     13, 1989-2009. DOI: 10.1021/acs.jctc.7b00118
   for GFN0-xTB:
   * P. Pracht, E. Caldeweyher, S. Ehlert, S. Grimme, ChemRxiv, 2019, preprint.
     DOI: 10.26434/chemrxiv.8326202.v1
   for GFN-FF:
   * S. Spicher and S. Grimme, Angew. Chem. Int. Ed., 2020, 59, 15665-15673.
     DOI: 10.1002/anie.202004239
   
   for ALPB and GBSA implicit solvation:
   * S. Ehlert, M. Stahn, S. Spicher, S. Grimme, J. Chem. Theory Comput.,
     2021, 17, 4250-4261. DOI: 10.1021/acs.jctc.1c00471
   
   for DFT-D4:
   * E. Caldeweyher, C. Bannwarth and S. Grimme, J. Chem. Phys., 2017,
     147, 034112. DOI: 10.1063/1.4993215
   * E. Caldeweyher, S. Ehlert, A. Hansen, H. Neugebauer, S. Spicher,
     C. Bannwarth and S. Grimme, J. Chem. Phys., 2019, 150, 154122.
     DOI: 10.1063/1.5090222
   * E. Caldeweyher, J.-M. Mewes, S. Ehlert and S. Grimme, Phys. Chem. Chem. Phys.
     2020, 22, 8499-8512. DOI: 10.1039/D0CP00502A
   
   for sTDA-xTB:
   * S. Grimme and C. Bannwarth, J. Chem. Phys., 2016, 145, 054103.
     DOI: 10.1063/1.4959605
   
   in the mass-spec context:
   * V. Asgeirsson, C. Bauer and S. Grimme, Chem. Sci., 2017, 8, 4879.
     DOI: 10.1039/c7sc00601b
   * J. Koopman and S. Grimme, ACS Omega 2019, 4, 12, 15120-15133.
     DOI: 10.1021/acsomega.9b02011
   
   for metadynamics refer to:
   * S. Grimme, J. Chem. Theory Comput., 2019, 155, 2847-2862
     DOI: 10.1021/acs.jctc.9b00143
   
   for SPH calculations refer to:
   * S. Spicher and S. Grimme, J. Chem. Theory Comput., 2021, 17, 1701-1714
     DOI: 10.1021/acs.jctc.0c01306
   
   with help from (in alphabetical order)
   P. Atkinson, C. Bannwarth, F. Bohle, G. Brandenburg, E. Caldeweyher
   M. Checinski, S. Dohm, S. Ehlert, S. Ehrlich, I. Gerasimov, C. Hölzer
   A. Katbashev, J. Koopman, C. Lavigne, S. Lehtola, F. März, M. Müller,
   F. Musil, H. Neugebauer, J. Pisarek, C. Plett, P. Pracht, F. Pultar,
   J. Seibert, P. Shushkov, S. Spicher, M. Stahn, M. Steiner, T. Strunk,
   J. Stückrath, T. Rose, and J. Unsleber
   
 * started run on 2023/06/20 at 15:34:08.906     

           -------------------------------------------------
          |                Calculation Setup                |
           -------------------------------------------------

          program call               : /lustre/hpc/kemi/ree/PhD/git/ReactivityQM/dep/xtb-6.5.1/bin/xtb --gfn 1 /lustre/hpc/kemi/ree/PhD/git/ReactivityQM/calculations/R03/reac02prodE13/conf03/R03_reac02prodE13_conf03_gfn1.xyz --opt --vfukui --chrg -1 --uhf 0 --alpb DMSO
          hostname                   : node068
          coordinate file            : /lustre/hpc/kemi/ree/PhD/git/ReactivityQM/calculations/R03/reac02prodE13/conf03/R03_reac02prodE13_conf03_gfn1.xyz
          omp threads                :                     1

   ID    Z sym.   atoms
    1    6 C      1, 3, 5, 6, 8, 10, 12-16, 18, 20, 23, 24
    2    8 O      2, 4, 7, 9, 19, 25
    3    7 N      11, 17, 21, 22, 26
    4    1 H      27-46

           -------------------------------------------------
          |                 G F N 1 - x T B                 |
           -------------------------------------------------

        Reference                      10.1021/acs.jctc.7b00118
      * Hamiltonian:
        H0-scaling (s, p, d)           1.850000    2.250000    2.000000
        zeta-weighting                 0.000000
      * Dispersion:
        s8                             2.400000
        a1                             0.630000
        a2                             5.000000
        s9                             0.000000
      * Repulsion:
        kExp                           1.500000
        rExp                           1.000000
      * Coulomb:
        alpha                          2.000000
        third order                    atomic
        anisotropic                    false
      * Halogen bond correction:
        rad-scale                      1.300000
        damping                        0.440000

      * Solvation model:               ALPB
        Solvent                        DMSO
        Parameter file                 internal GFN1-xTB/ALPB
        Dielectric constant                4.6680E+01
        Reference state                gsolv [1 M gas/solution]
        Free energy shift                  7.6243E-03 Eh       4.7843E+00 kcal/mol
        Temperature                        2.9815E+02 K
        Density                            1.1000E+00 kg/L
        Solvent mass                       7.8130E+01 g/mol
        Interaction kernel             P16
        Born radius scaling (c1)           1.7672E+00
        Born radii integrator          GBOBC
        Born offset                        0.0000E+00 a0       0.0000E+00 AA
        H-bond correction              true
        Ion screening                  false
        Surface tension                    1.0000E-05 Eh       1.5569E+01 dyn/cm
        Grid points                               230 per atom

          ...................................................
          :                      SETUP                      :
          :.................................................:
          :  # basis functions                 144          :
          :  # atomic orbitals                 144          :
          :  # shells                           92          :
          :  # electrons                       142          :
          :  # halogen bonds                     0          :
          :  max. iterations                   250          :
          :  Hamiltonian                  GFN1-xTB          :
          :  restarted?                      false          :
          :  GBSA solvation                   true          :
          :  PC potential                    false          :
          :  electronic temp.          300.0000000     K    :
          :  accuracy                    1.0000000          :
          :  -> integral cutoff          0.2500000E+02      :
          :  -> integral neglect         0.1000000E-07      :
          :  -> SCF convergence          0.1000000E-05 Eh   :
          :  -> wf. convergence          0.2000000E-04 e    :
          :  Broyden damping             0.4000000          :
          ...................................................

 iter      E             dE          RMSdq      gap      omega  full diag
   1    -87.5180595 -0.875181E+02  0.852E+00    0.61       0.0  T
   2    -87.4392534  0.788061E-01  0.528E+00    0.49       1.0  T
   3    -86.2209063  0.121835E+01  0.389E+00    0.24       1.0  T
   4    -87.6622548 -0.144135E+01  0.138E+00    1.61       1.0  T
   5    -87.7518919 -0.896371E-01  0.732E-01    1.04       1.0  T
   6    -87.7644272 -0.125353E-01  0.405E-01    0.48       1.0  T
   7    -87.4955672  0.268860E+00  0.136E+00    0.22       1.0  T
   8    -87.7654843 -0.269917E+00  0.387E-01    0.48       1.0  T
   9    -87.7670384 -0.155418E-02  0.344E-01    0.36       1.0  T
  10    -87.7692342 -0.219572E-02  0.299E-01    0.24       1.0  T
  11    -87.7811787 -0.119446E-01  0.602E-02    0.10       1.0  T
  12    -87.7815008 -0.322118E-03  0.330E-02    0.08       1.0  T
  13    -87.7810784  0.422392E-03  0.627E-02    0.10       1.0  T
  14    -87.7816836 -0.605165E-03  0.177E-03    0.08       8.3  T
  15    -87.7816816  0.198323E-05  0.374E-03    0.08       3.9  T
  16    -87.7816832 -0.155740E-05  0.198E-03    0.08       7.4  T
  17    -87.7816837 -0.489434E-06  0.933E-04    0.08      15.8  T
  18    -87.7816836  0.368052E-07  0.104E-03    0.08      14.2  T
  19    -87.7816838 -0.168603E-06  0.808E-05    0.08     182.4  T
  20    -87.7816838 -0.632710E-09  0.497E-05    0.08     297.0  T

   *** convergence criteria satisfied after 20 iterations ***

         #    Occupation            Energy/Eh            Energy/eV
      -------------------------------------------------------------
         1        2.0000           -0.8300675             -22.5873
       ...           ...                  ...                  ...
        65        2.0000           -0.4202619             -11.4359
        66        2.0000           -0.4171324             -11.3508
        67        2.0000           -0.4146250             -11.2825
        68        2.0000           -0.4068645             -11.0713
        69        2.0000           -0.3915933             -10.6558
        70        2.0000           -0.3891238             -10.5886
        71        1.6685           -0.2870721              -7.8116 (HOMO)
        72        0.3315           -0.2840015              -7.7281 (LUMO)
        73                         -0.2382488              -6.4831
        74                         -0.2319285              -6.3111
        75                         -0.1955156              -5.3203
        76                         -0.1676684              -4.5625
       ...                                ...                  ...
       144                          0.7163107              19.4918
      -------------------------------------------------------------
                  HL-Gap            0.0030707 Eh            0.0836 eV
             Fermi-level           -0.2855368 Eh           -7.7699 eV

 SCC (total)                   0 d,  0 h,  0 min,  0.216 sec
 SCC setup                      ...        0 min,  0.002 sec (  0.958%)
 Dispersion                     ...        0 min,  0.000 sec (  0.154%)
 classical contributions        ...        0 min,  0.000 sec (  0.049%)
 integral evaluation            ...        0 min,  0.029 sec ( 13.620%)
 iterations                     ...        0 min,  0.119 sec ( 55.016%)
 molecular gradient             ...        0 min,  0.064 sec ( 29.575%)
 printout                       ...        0 min,  0.001 sec (  0.618%)

         :::::::::::::::::::::::::::::::::::::::::::::::::::::
         ::                     SUMMARY                     ::
         :::::::::::::::::::::::::::::::::::::::::::::::::::::
         :: total energy             -87.005685270359 Eh    ::
         :: total w/o Gsasa/hb       -86.982634797579 Eh    ::
         :: gradient norm              0.155174220201 Eh/a0 ::
         :: HOMO-LUMO gap              0.083556841961 eV    ::
         ::.................................................::
         :: SCC energy               -87.781683788948 Eh    ::
         :: -> electrostatic           0.418447648107 Eh    ::
         :: -> Gsolv                  -0.113467304701 Eh    ::
         ::    -> Gelec               -0.090416831921 Eh    ::
         ::    -> Gsasa               -0.025837618290 Eh    ::
         ::    -> Ghb                 -0.004837133495 Eh    ::
         ::    -> Gshift               0.007624279005 Eh    ::
         :: repulsion energy           0.804932813517 Eh    ::
         :: dispersion energy         -0.028934294928 Eh    ::
         :: halogen bond corr.         0.000000000000 Eh    ::
         :: add. restraining           0.000000000000 Eh    ::
         :: total charge              -1.000000000000 e     ::
         :::::::::::::::::::::::::::::::::::::::::::::::::::::

      ----------------------------------------------------------- 
     |                   =====================                   |
     |                        A N C O P T                        |
     |                   =====================                   |
     |               Approximate Normal Coordinate               |
     |                Rational Function Optimizer                |
      ----------------------------------------------------------- 

          ...................................................
          :                      SETUP                      :
          :.................................................:
          :   optimization level            normal          :
          :   max. optcycles                   200          :
          :   ANC micro-cycles                  20          :
          :   degrees of freedom               132          :
          :.................................................:
          :   RF solver                   davidson          :
          :   write xtbopt.log                true          :
          :   linear?                        false          :
          :   energy convergence         0.5000000E-05 Eh   :
          :   grad. convergence          0.1000000E-02 Eh/α :
          :   maximium RF displ.         1.0000000          :
          :   Hlow (freq-cutoff)         0.1000000E-01      :
          :   Hmax (freq-cutoff)         5.0000000          :
          :   S6 in model hess.         20.0000000          :
          ...................................................

generating ANC from model Hessian ...
Using Lindh-Hessian (1995)
 Shifting diagonal of input Hessian by   9.806573285428053E-003
 Lowest  eigenvalues of input Hessian
    0.000000    0.000000    0.000000    0.000000    0.000000    0.000000
    0.010000    0.010024    0.010432    0.010957    0.011598    0.011944
    0.012270    0.012946    0.013294    0.014274    0.014600    0.015769
 Highest eigenvalues
    1.944509    2.038638    2.107290    2.112709    2.256080    2.317650
 

........................................................................
.............................. CYCLE    1 ..............................
........................................................................
   1    -87.7816838 -0.877817E+02  0.203E-05    0.08       0.0  T
   2    -87.7816838  0.875271E-08  0.237E-04    0.08      62.2  T
   3    -87.7816838 -0.881725E-08  0.267E-07    0.08   55263.7  T
   4    -87.7816838  0.568434E-13  0.636E-07    0.08   23167.0  T
     SCC iter.                  ...        0 min,  0.024 sec
     gradient                   ...        0 min,  0.063 sec
 * total energy  :   -87.0056853 Eh     change       -0.3838494E-09 Eh
   gradient norm :     0.1551695 Eh/α   predicted     0.0000000E+00 (-100.00%)
   displ. norm   :     0.3507663 α      lambda       -0.2033620E-01
   maximum displ.:     0.1295801 α      in ANC's #35, #14, #6, ...

........................................................................
.............................. CYCLE    2 ..............................
........................................................................
   1    -87.7882087 -0.877882E+02  0.276E-01    0.25       0.0  T
   2    -87.4731374  0.315071E+00  0.148E+00    0.47       1.0  T
   3    -87.7936855 -0.320548E+00  0.185E-01    0.15       1.0  T
   4    -87.7973923 -0.370681E-02  0.813E-02    0.11       1.0  T
   5    -87.7982358 -0.843480E-03  0.270E-02    0.09       1.0  T
   6    -87.7982262  0.958078E-05  0.287E-02    0.10       1.0  T
   7    -87.7983502 -0.124018E-03  0.152E-03    0.09       9.7  T
   8    -87.7983495  0.675735E-06  0.238E-03    0.09       6.2  T
   9    -87.7983502 -0.698477E-06  0.111E-03    0.09      13.3  T
  10    -87.7983503 -0.127901E-06  0.642E-04    0.09      23.0  T
  11    -87.7983504 -0.573943E-07  0.215E-04    0.09      68.4  T
  12    -87.7983504 -0.671031E-08  0.533E-05    0.09     276.6  T
  13    -87.7983504 -0.429608E-09  0.105E-05    0.09    1409.6  T
     SCC iter.                  ...        0 min,  0.077 sec
     gradient                   ...        0 min,  0.065 sec
 * total energy  :   -87.0207452 Eh     change       -0.1505995E-01 Eh
   gradient norm :     0.0769406 Eh/α   predicted    -0.1143712E-01 ( -24.06%)
   displ. norm   :     0.3556772 α      lambda       -0.9866611E-02
   maximum displ.:     0.1208755 α      in ANC's #35, #6, #8, ...

........................................................................
.............................. CYCLE    3 ..............................
........................................................................
   1    -87.8047365 -0.878047E+02  0.246E-01    0.30       0.0  T
   2    -87.4702754  0.334461E+00  0.151E+00    0.35       1.0  T
   3    -87.8070732 -0.336798E+00  0.202E-01    0.22       1.0  T
   4    -87.8090511 -0.197795E-02  0.154E-01    0.17       1.0  T
   5    -87.8122281 -0.317692E-02  0.476E-02    0.12       1.0  T
   6    -87.8121362  0.918825E-04  0.513E-02    0.09       1.0  T
   7    -87.8124606 -0.324440E-03  0.239E-02    0.11       1.0  T
   8    -87.8125354 -0.747428E-04  0.889E-03    0.10       1.7  T
   9    -87.8125476 -0.122520E-04  0.530E-04    0.10      27.8  T
  10    -87.8125476 -0.955902E-08  0.446E-04    0.10      33.1  T
  11    -87.8125476 -0.251601E-07  0.200E-04    0.10      73.7  T
  12    -87.8125476 -0.620854E-08  0.986E-06    0.10    1496.0  T
  13    -87.8125476 -0.124487E-10  0.237E-06    0.10    6228.6  T
     SCC iter.                  ...        0 min,  0.079 sec
     gradient                   ...        0 min,  0.066 sec
 * total energy  :   -87.0265707 Eh     change       -0.5825476E-02 Eh
   gradient norm :     0.0216899 Eh/α   predicted    -0.5557402E-02 (  -4.60%)
   displ. norm   :     0.2869459 α      lambda       -0.1767343E-02
   maximum displ.:     0.1180500 α      in ANC's #7, #6, #8, ...

........................................................................
.............................. CYCLE    4 ..............................
........................................................................
   1    -87.8094635 -0.878095E+02  0.143E-01    0.18       0.0  T
   2    -87.4777838  0.331680E+00  0.148E+00    0.23       1.0  T
   3    -87.8120111 -0.334227E+00  0.653E-02    0.13       1.0  T
   4    -87.8124949 -0.483815E-03  0.302E-02    0.12       1.0  T
   5    -87.8126362 -0.141335E-03  0.567E-03    0.11       2.6  T
   6    -87.8126289  0.738586E-05  0.858E-03    0.11       1.7  T
   7    -87.8126385 -0.967375E-05  0.277E-03    0.11       5.3  T
   8    -87.8126397 -0.113330E-05  0.242E-04    0.11      60.9  T
   9    -87.8126397 -0.587889E-09  0.210E-04    0.11      70.2  T
  10    -87.8126397 -0.513282E-08  0.930E-05    0.11     158.6  T
  11    -87.8126397 -0.118905E-08  0.159E-05    0.11     925.1  T
     SCC iter.                  ...        0 min,  0.067 sec
     gradient                   ...        0 min,  0.067 sec
 * total energy  :   -87.0279217 Eh     change       -0.1351024E-02 Eh
   gradient norm :     0.0159891 Eh/α   predicted    -0.9564611E-03 ( -29.20%)
   displ. norm   :     0.4076253 α      lambda       -0.1570865E-02
   maximum displ.:     0.2079807 α      in ANC's #7, #6, #8, ...

........................................................................
.............................. CYCLE    5 ..............................
........................................................................
   1    -87.8095347 -0.878095E+02  0.127E-01    0.18       0.0  T
   2    -87.4844598  0.325075E+00  0.146E+00    0.18       1.0  T
   3    -87.8114460 -0.326986E+00  0.628E-02    0.14       1.0  T
   4    -87.8118336 -0.387571E-03  0.346E-02    0.13       1.0  T
   5    -87.8120180 -0.184353E-03  0.470E-03    0.11       3.1  T
   6    -87.8120099  0.802397E-05  0.808E-03    0.11       1.8  T
   7    -87.8120171 -0.714033E-05  0.413E-03    0.11       3.6  T
   8    -87.8120196 -0.253620E-05  0.669E-04    0.11      22.1  T
   9    -87.8120197 -0.608798E-07  0.172E-04    0.11      85.8  T
  10    -87.8120197 -0.322395E-08  0.858E-05    0.11     171.8  T
     SCC iter.                  ...        0 min,  0.065 sec
     gradient                   ...        0 min,  0.066 sec
 * total energy  :   -87.0290419 Eh     change       -0.1120204E-02 Eh
   gradient norm :     0.0096888 Eh/α   predicted    -0.9159451E-03 ( -18.23%)
   displ. norm   :     0.3787541 α      lambda       -0.8349129E-03
   maximum displ.:     0.2149847 α      in ANC's #7, #6, #8, ...

........................................................................
.............................. CYCLE    6 ..............................
........................................................................
   1    -87.8114529 -0.878115E+02  0.631E-02    0.14       0.0  T
   2    -87.6763559  0.135097E+00  0.931E-01    0.04       1.0  T
   3    -87.8119319 -0.135576E+00  0.301E-02    0.13       1.0  T
   4    -87.8119855 -0.535761E-04  0.217E-02    0.12       1.0  T
   5    -87.8120378 -0.523825E-04  0.112E-02    0.12       1.3  T
   6    -87.8120551 -0.172703E-04  0.193E-03    0.12       7.6  T
   7    -87.8120556 -0.499434E-06  0.132E-04    0.12     111.7  T
   8    -87.8120556  0.536313E-08  0.212E-04    0.12      69.7  T
   9    -87.8120556  0.142677E-09  0.203E-04    0.12      72.5  T
  10    -87.8120556 -0.375533E-08  0.121E-04    0.12     122.3  T
     SCC iter.                  ...        0 min,  0.061 sec
     gradient                   ...        0 min,  0.068 sec
 * total energy  :   -87.0296580 Eh     change       -0.6161136E-03 Eh
   gradient norm :     0.0101751 Eh/α   predicted    -0.4773429E-03 ( -22.52%)
   displ. norm   :     0.3705336 α      lambda       -0.5971535E-03
   maximum displ.:     0.2216913 α      in ANC's #7, #6, #8, ...

........................................................................
.............................. CYCLE    7 ..............................
........................................................................
   1    -87.8133213 -0.878133E+02  0.111E-02    0.12       0.0  T
   2    -87.8133245 -0.321200E-05  0.665E-03    0.12       2.2  T
   3    -87.8132610  0.635538E-04  0.207E-02    0.11       1.0  T
   4    -87.8133187 -0.577069E-04  0.825E-03    0.12       1.8  T
   5    -87.8133267 -0.800221E-05  0.308E-03    0.12       4.8  T
   6    -87.8133277 -0.976666E-06  0.779E-04    0.12      18.9  T
   7    -87.8133278 -0.762800E-07  0.645E-05    0.12     228.6  T
   8    -87.8133278 -0.376730E-10  0.455E-05    0.12     324.0  T
     SCC iter.                  ...        0 min,  0.049 sec
     gradient                   ...        0 min,  0.067 sec
 * total energy  :   -87.0300960 Eh     change       -0.4380036E-03 Eh
   gradient norm :     0.0096281 Eh/α   predicted    -0.3395701E-03 ( -22.47%)
   displ. norm   :     0.3102464 α      lambda       -0.3922937E-03
   maximum displ.:     0.1803036 α      in ANC's #7, #6, #3, ...

........................................................................
.............................. CYCLE    8 ..............................
........................................................................
   1    -87.8142210 -0.878142E+02  0.693E-02    0.09       0.0  T
   2    -87.8096940  0.452698E-02  0.201E-01    0.29       1.0  T
   3    -87.8140080 -0.431397E-02  0.812E-02    0.15       1.0  T
   4    -87.8149527 -0.944669E-03  0.150E-02    0.12       1.0  T
   5    -87.8149666 -0.139749E-04  0.104E-02    0.11       1.4  T
   6    -87.8149808 -0.141678E-04  0.474E-03    0.12       3.1  T
   7    -87.8149840 -0.314259E-05  0.549E-04    0.11      26.9  T
   8    -87.8149840 -0.193830E-07  0.401E-04    0.11      36.8  T
   9    -87.8149840 -0.157459E-07  0.247E-04    0.11      59.8  T
  10    -87.8149840 -0.853315E-08  0.682E-05    0.11     216.1  T
  11    -87.8149840 -0.679890E-09  0.143E-05    0.11    1027.9  T
     SCC iter.                  ...        0 min,  0.066 sec
     gradient                   ...        0 min,  0.067 sec
 * total energy  :   -87.0303788 Eh     change       -0.2827594E-03 Eh
   gradient norm :     0.0068157 Eh/α   predicted    -0.2150272E-03 ( -23.95%)
   displ. norm   :     0.2530910 α      lambda       -0.2427502E-03
   maximum displ.:     0.1335003 α      in ANC's #7, #3, #15, ...

........................................................................
.............................. CYCLE    9 ..............................
........................................................................
   1    -87.8153347 -0.878153E+02  0.753E-02    0.09       0.0  T
   2    -87.8104662  0.486851E-02  0.210E-01    0.30       1.0  T
   3    -87.8150246 -0.455838E-02  0.897E-02    0.15       1.0  T
   4    -87.8161867 -0.116217E-02  0.165E-02    0.12       1.0  T
   5    -87.8161871 -0.392535E-06  0.161E-02    0.11       1.0  T
   6    -87.8162168 -0.296624E-04  0.826E-03    0.12       1.8  T
   7    -87.8162270 -0.102414E-04  0.280E-04    0.11      52.6  T
   8    -87.8162271 -0.583374E-08  0.129E-04    0.11     114.7  T
   9    -87.8162270  0.171919E-08  0.168E-04    0.11      87.5  T
     SCC iter.                  ...        0 min,  0.055 sec
     gradient                   ...        0 min,  0.068 sec
 * total energy  :   -87.0305518 Eh     change       -0.1729796E-03 Eh
   gradient norm :     0.0045802 Eh/α   predicted    -0.1291519E-03 ( -25.34%)
   displ. norm   :     0.2051112 α      lambda       -0.1560988E-03
   maximum displ.:     0.0940553 α      in ANC's #3, #7, #15, ...

........................................................................
.............................. CYCLE   10 ..............................
........................................................................
   1    -87.8161968 -0.878162E+02  0.535E-02    0.10       0.0  T
   2    -87.8116803  0.451658E-02  0.189E-01    0.24       1.0  T
   3    -87.8162403 -0.456006E-02  0.513E-02    0.13       1.0  T
   4    -87.8166294 -0.389072E-03  0.897E-03    0.11       1.6  T
   5    -87.8166341 -0.466949E-05  0.679E-03    0.11       2.2  T
   6    -87.8166391 -0.505158E-05  0.345E-03    0.11       4.3  T
   7    -87.8166409 -0.182919E-05  0.892E-05    0.11     165.2  T
   8    -87.8166409 -0.769020E-09  0.275E-05    0.11     536.2  T
   9    -87.8166409 -0.788702E-11  0.155E-05    0.11     952.0  T
     SCC iter.                  ...        0 min,  0.055 sec
     gradient                   ...        0 min,  0.068 sec
 * total energy  :   -87.0306670 Eh     change       -0.1151801E-03 Eh
   gradient norm :     0.0048033 Eh/α   predicted    -0.8133358E-04 ( -29.39%)
   displ. norm   :     0.2028999 α      lambda       -0.1417234E-03
   maximum displ.:     0.1100409 α      in ANC's #3, #4, #15, ...

........................................................................
.............................. CYCLE   11 ..............................
........................................................................
   1    -87.8167209 -0.878167E+02  0.265E-02    0.10       0.0  T
   2    -87.8142124  0.250851E-02  0.133E-01    0.17       1.0  T
   3    -87.8168076 -0.259527E-02  0.101E-02    0.11       1.5  T
   4    -87.8168120 -0.433856E-05  0.896E-03    0.11       1.6  T
   5    -87.8168234 -0.114206E-04  0.128E-03    0.11      11.5  T
   6    -87.8168236 -0.191573E-06  0.430E-04    0.11      34.3  T
   7    -87.8168236 -0.265887E-07  0.797E-05    0.11     185.0  T
   8    -87.8168236 -0.328825E-09  0.589E-05    0.11     250.1  T
     SCC iter.                  ...        0 min,  0.049 sec
     gradient                   ...        0 min,  0.067 sec
 * total energy  :   -87.0307750 Eh     change       -0.1080835E-03 Eh
   gradient norm :     0.0057479 Eh/α   predicted    -0.7378925E-04 ( -31.73%)
   displ. norm   :     0.2479915 α      lambda       -0.1609887E-03
   maximum displ.:     0.1468876 α      in ANC's #3, #4, #15, ...

........................................................................
.............................. CYCLE   12 ..............................
........................................................................
   1    -87.8159931 -0.878160E+02  0.175E-02    0.11       0.0  T
   2    -87.8146175  0.137563E-02  0.977E-02    0.15       1.0  T
   3    -87.8160338 -0.141626E-02  0.329E-03    0.11       4.5  T
   4    -87.8160344 -0.623723E-06  0.144E-03    0.11      10.2  T
   5    -87.8160342  0.195240E-06  0.140E-03    0.11      10.5  T
   6    -87.8160343 -0.657027E-07  0.104E-03    0.11      14.2  T
   7    -87.8160344 -0.165565E-06  0.499E-05    0.11     295.3  T
   8    -87.8160344  0.120892E-09  0.413E-05    0.11     356.8  T
     SCC iter.                  ...        0 min,  0.049 sec
     gradient                   ...        0 min,  0.067 sec
 * total energy  :   -87.0308956 Eh     change       -0.1205311E-03 Eh
   gradient norm :     0.0066307 Eh/α   predicted    -0.8544646E-04 ( -29.11%)
   displ. norm   :     0.2537353 α      lambda       -0.1852065E-03
   maximum displ.:     0.1611388 α      in ANC's #3, #4, #21, ...

........................................................................
.............................. CYCLE   13 ..............................
........................................................................
   1    -87.8169650 -0.878170E+02  0.187E-02    0.12       0.0  T
   2    -87.8112480  0.571704E-02  0.194E-01    0.07       1.0  T
   3    -87.8170175 -0.576957E-02  0.301E-03    0.11       4.9  T
   4    -87.8170177 -0.176873E-06  0.174E-03    0.11       8.5  T
   5    -87.8170173  0.422873E-06  0.198E-03    0.11       7.5  T
   6    -87.8170177 -0.406064E-06  0.691E-04    0.11      21.3  T
   7    -87.8170178 -0.589709E-07  0.234E-04    0.11      63.1  T
   8    -87.8170178 -0.753107E-08  0.482E-05    0.11     306.0  T
   9    -87.8170178 -0.271967E-09  0.121E-05    0.11    1214.8  T
     SCC iter.                  ...        0 min,  0.053 sec
     gradient                   ...        0 min,  0.066 sec
 * total energy  :   -87.0310281 Eh     change       -0.1324936E-03 Eh
   gradient norm :     0.0058551 Eh/α   predicted    -0.9856710E-04 ( -25.61%)
   displ. norm   :     0.3592989 α      lambda       -0.2307844E-03
   maximum displ.:     0.2233279 α      in ANC's #3, #21, #15, ...

........................................................................
.............................. CYCLE   14 ..............................
........................................................................
   1    -87.8138122 -0.878138E+02  0.142E-02    0.11       0.0  T
   2    -87.8135887  0.223432E-03  0.383E-02    0.10       1.0  T
   3    -87.8137234 -0.134626E-03  0.267E-02    0.12       1.0  T
   4    -87.8138059 -0.825741E-04  0.101E-02    0.11       1.5  T
   5    -87.8138189 -0.129400E-04  0.236E-03    0.11       6.3  T
   6    -87.8138195 -0.572012E-06  0.339E-04    0.11      43.5  T
   7    -87.8138195 -0.914036E-08  0.859E-05    0.11     171.6  T
   8    -87.8138195  0.505011E-09  0.839E-05    0.11     175.7  T
     SCC iter.                  ...        0 min,  0.044 sec
     gradient                   ...        0 min,  0.049 sec
 * total energy  :   -87.0311533 Eh     change       -0.1252724E-03 Eh
   gradient norm :     0.0093276 Eh/α   predicted    -0.1302936E-03 (   4.01%)
   displ. norm   :     0.2295507 α      lambda       -0.2784913E-03
   maximum displ.:     0.1409167 α      in ANC's #3, #7, #12, ...

........................................................................
.............................. CYCLE   15 ..............................
........................................................................
   1    -87.8166400 -0.878166E+02  0.254E-02    0.12       0.0  T
   2    -87.8056594  0.109806E-01  0.267E-01    0.05       1.0  T
   3    -87.8167181 -0.110587E-01  0.980E-03    0.11       1.5  T
   4    -87.8167201 -0.197252E-05  0.781E-03    0.11       1.9  T
   5    -87.8167275 -0.742885E-05  0.225E-03    0.11       6.5  T
   6    -87.8167280 -0.520578E-06  0.639E-04    0.11      23.1  T
   7    -87.8167281 -0.488872E-07  0.180E-04    0.11      81.8  T
   8    -87.8167281 -0.289072E-08  0.953E-05    0.11     154.8  T
     SCC iter.                  ...        0 min,  0.056 sec
     gradient                   ...        0 min,  0.076 sec
 * total energy  :   -87.0313303 Eh     change       -0.1769541E-03 Eh
   gradient norm :     0.0084180 Eh/α   predicted    -0.1465850E-03 ( -17.16%)
   displ. norm   :     0.2808180 α      lambda       -0.2116692E-03
   maximum displ.:     0.1846548 α      in ANC's #3, #21, #15, ...

........................................................................
.............................. CYCLE   16 ..............................
........................................................................
   1    -87.8177924 -0.878178E+02  0.354E-02    0.12       0.0  T
   2    -87.7853861  0.324062E-01  0.459E-01    0.03       1.0  T
   3    -87.8179752 -0.325891E-01  0.874E-03    0.11       1.7  T
   4    -87.8179840 -0.876149E-05  0.305E-03    0.11       4.8  T
   5    -87.8179846 -0.649042E-06  0.227E-03    0.11       6.5  T
   6    -87.8179841  0.508474E-06  0.275E-03    0.11       5.4  T
   7    -87.8179849 -0.748397E-06  0.151E-03    0.11       9.7  T
   8    -87.8179852 -0.317630E-06  0.426E-04    0.11      34.6  T
   9    -87.8179852 -0.269068E-07  0.425E-05    0.11     346.6  T
  10    -87.8179852 -0.214911E-09  0.952E-06    0.11    1548.5  T
     SCC iter.                  ...        0 min,  0.071 sec
     gradient                   ...        0 min,  0.077 sec
 * total energy  :   -87.0314901 Eh     change       -0.1597813E-03 Eh
   gradient norm :     0.0081528 Eh/α   predicted    -0.1141835E-03 ( -28.54%)
   displ. norm   :     0.4252055 α      lambda       -0.3061740E-03
   maximum displ.:     0.2956505 α      in ANC's #3, #21, #15, ...

........................................................................
.............................. CYCLE   17 ..............................
........................................................................
   1    -87.8153734 -0.878154E+02  0.829E-02    0.09       0.0  T
   2    -87.8101686  0.520472E-02  0.222E-01    0.32       1.0  T
   3    -87.8148391 -0.467044E-02  0.105E-01    0.15       1.0  T
   4    -87.8162677 -0.142865E-02  0.356E-02    0.12       1.0  T
   5    -87.8164182 -0.150447E-03  0.141E-02    0.11       1.0  T
   6    -87.8164484 -0.301938E-04  0.310E-03    0.11       4.7  T
   7    -87.8164495 -0.115811E-05  0.498E-04    0.11      29.6  T
   8    -87.8164495  0.582291E-07  0.775E-04    0.11      19.0  T
   9    -87.8164495 -0.666653E-07  0.420E-04    0.11      35.1  T
  10    -87.8164496 -0.214598E-07  0.182E-04    0.11      81.0  T
  11    -87.8164496 -0.494366E-08  0.311E-05    0.11     474.5  T
     SCC iter.                  ...        0 min,  0.076 sec
     gradient                   ...        0 min,  0.077 sec
 * total energy  :   -87.0316770 Eh     change       -0.1868886E-03 Eh
   gradient norm :     0.0076494 Eh/α   predicted    -0.1807683E-03 (  -3.27%)
   displ. norm   :     0.1668431 α      lambda       -0.2007908E-03
   maximum displ.:     0.0989733 α      in ANC's #3, #4, #15, ...

........................................................................
.............................. CYCLE   18 ..............................
........................................................................
   1    -87.8218555 -0.878219E+02  0.348E-02    0.12       0.0  T
   2    -87.7868109  0.350446E-01  0.478E-01    0.02       1.0  T
   3    -87.8220282 -0.352173E-01  0.160E-02    0.11       1.0  T
   4    -87.8219846  0.436369E-04  0.228E-02    0.10       1.0  T
   5    -87.8219977 -0.130672E-04  0.195E-02    0.10       1.0  T
   6    -87.8220450 -0.473392E-04  0.761E-03    0.11       1.9  T
   7    -87.8220522 -0.718028E-05  0.322E-03    0.11       4.6  T
   8    -87.8220536 -0.145865E-05  0.859E-04    0.11      17.2  T
   9    -87.8220537 -0.106343E-06  0.144E-04    0.11     102.5  T
  10    -87.8220537 -0.151819E-08  0.921E-05    0.11     160.2  T
     SCC iter.                  ...        0 min,  0.069 sec
     gradient                   ...        0 min,  0.076 sec
 * total energy  :   -87.0317361 Eh     change       -0.5914461E-04 Eh
   gradient norm :     0.0078159 Eh/α   predicted    -0.1031964E-03 (  74.48%)
   displ. norm   :     0.3397035 α      lambda       -0.1981792E-03
   maximum displ.:     0.2490967 α      in ANC's #3, #15, #21, ...

........................................................................
.............................. CYCLE   19 ..............................
........................................................................
   1    -87.8169063 -0.878169E+02  0.196E-02    0.10       0.0  T
   2    -87.8155631  0.134326E-02  0.962E-02    0.15       1.0  T
   3    -87.8169442 -0.138108E-02  0.796E-03    0.11       1.9  T
   4    -87.8169473 -0.316651E-05  0.450E-03    0.11       3.3  T
   5    -87.8169490 -0.172573E-05  0.120E-03    0.11      12.2  T
   6    -87.8169491 -0.363027E-07  0.341E-04    0.11      43.2  T
   7    -87.8169491 -0.105402E-07  0.778E-05    0.11     189.6  T
   8    -87.8169491 -0.112067E-09  0.189E-05    0.11     779.9  T
     SCC iter.                  ...        0 min,  0.056 sec
     gradient                   ...        0 min,  0.088 sec
 * total energy  :   -87.0318298 Eh     change       -0.9364984E-04 Eh
   gradient norm :     0.0069836 Eh/α   predicted    -0.1105287E-03 (  18.02%)
   displ. norm   :     0.0658657 α      lambda       -0.1178504E-03
   maximum displ.:     0.0216957 α      in ANC's #4, #12, #5, ...

........................................................................
.............................. CYCLE   20 ..............................
........................................................................
   1    -87.8174878 -0.878175E+02  0.286E-02    0.10       0.0  T
   2    -87.8146042  0.288362E-02  0.144E-01    0.18       1.0  T
   3    -87.8175458 -0.294163E-02  0.222E-02    0.12       1.0  T
   4    -87.8176061 -0.602635E-04  0.800E-03    0.11       1.8  T
   5    -87.8176128 -0.673986E-05  0.488E-03    0.11       3.0  T
   6    -87.8176160 -0.322905E-05  0.580E-04    0.11      25.4  T
   7    -87.8176161 -0.355829E-07  0.321E-04    0.11      46.0  T
   8    -87.8176161 -0.138829E-07  0.841E-05    0.11     175.3  T
   9    -87.8176161 -0.962842E-09  0.181E-05    0.11     814.5  T
     SCC iter.                  ...        0 min,  0.062 sec
     gradient                   ...        0 min,  0.077 sec
 * total energy  :   -87.0318879 Eh     change       -0.5813597E-04 Eh
   gradient norm :     0.0045980 Eh/α   predicted    -0.5918516E-04 (   1.80%)
   displ. norm   :     0.1188876 α      lambda       -0.7492912E-04
   maximum displ.:     0.0871636 α      in ANC's #3, #4, #15, ...
 * RMSD in coord.:     0.5772989 α      energy gain  -0.2620262E-01 Eh

generating ANC from model Hessian ...
Using Lindh-Hessian (1995)
 Shifting diagonal of input Hessian by   9.800008066354917E-003
 Lowest  eigenvalues of input Hessian
    0.000000    0.000000    0.000000    0.000000    0.000000    0.000000
    0.010000    0.010038    0.010378    0.010860    0.011617    0.011923
    0.012226    0.012864    0.013264    0.014071    0.014372    0.015628
 Highest eigenvalues
    2.016344    2.054298    2.130241    2.165034    2.261948    2.352866
 

........................................................................
.............................. CYCLE   21 ..............................
........................................................................
   1    -87.8183050 -0.878183E+02  0.233E-02    0.12       0.0  T
   2    -87.8069413  0.113637E-01  0.273E-01    0.05       1.0  T
   3    -87.8183899 -0.114486E-01  0.546E-03    0.11       2.7  T
   4    -87.8183870  0.282693E-05  0.657E-03    0.11       2.2  T
   5    -87.8183874 -0.400637E-06  0.585E-03    0.11       2.5  T
   6    -87.8183920 -0.454481E-05  0.165E-03    0.11       8.9  T
   7    -87.8183923 -0.353117E-06  0.605E-04    0.11      24.4  T
   8    -87.8183924 -0.545036E-07  0.744E-05    0.11     198.1  T
   9    -87.8183924 -0.222087E-09  0.571E-05    0.11     258.1  T
     SCC iter.                  ...        0 min,  0.061 sec
     gradient                   ...        0 min,  0.077 sec
 * total energy  :   -87.0319333 Eh     change       -0.4543271E-04 Eh
   gradient norm :     0.0039987 Eh/α   predicted     0.0000000E+00 (-100.00%)
   displ. norm   :     0.0349021 α      lambda       -0.2000101E-04
   maximum displ.:     0.0199666 α      in ANC's #4, #3, #6, ...

........................................................................
.............................. CYCLE   22 ..............................
........................................................................
   1    -87.8189704 -0.878190E+02  0.891E-03    0.11       0.0  T
   2    -87.8180890  0.881397E-03  0.763E-02    0.09       1.0  T
   3    -87.8189815 -0.892494E-03  0.194E-03    0.11       7.6  T
   4    -87.8189818 -0.250020E-06  0.866E-04    0.11      17.0  T
   5    -87.8189818 -0.378035E-07  0.402E-04    0.11      36.6  T
   6    -87.8189818 -0.463831E-08  0.787E-05    0.11     187.3  T
   7    -87.8189818 -0.153719E-09  0.412E-05    0.11     358.3  T
     SCC iter.                  ...        0 min,  0.048 sec
     gradient                   ...        0 min,  0.076 sec
 * total energy  :   -87.0319586 Eh     change       -0.2531426E-04 Eh
   gradient norm :     0.0014945 Eh/α   predicted    -0.1608798E-04 ( -36.45%)
   displ. norm   :     0.1361519 α      lambda       -0.4541224E-04
   maximum displ.:     0.0772320 α      in ANC's #4, #3, #13, ...

........................................................................
.............................. CYCLE   23 ..............................
........................................................................
   1    -87.8197402 -0.878197E+02  0.174E-02    0.12       0.0  T
   2    -87.8153673  0.437281E-02  0.169E-01    0.07       1.0  T
   3    -87.8197804 -0.441310E-02  0.587E-03    0.11       2.5  T
   4    -87.8197823 -0.187364E-05  0.369E-03    0.11       4.0  T
   5    -87.8197839 -0.157469E-05  0.137E-03    0.11      10.8  T
   6    -87.8197841 -0.158228E-06  0.146E-04    0.11     100.7  T
   7    -87.8197841 -0.423057E-10  0.871E-05    0.11     169.3  T
     SCC iter.                  ...        0 min,  0.049 sec
     gradient                   ...        0 min,  0.074 sec
 * total energy  :   -87.0319975 Eh     change       -0.3886002E-04 Eh
   gradient norm :     0.0041953 Eh/α   predicted    -0.2289380E-04 ( -41.09%)
   displ. norm   :     0.0664026 α      lambda       -0.2422588E-04
   maximum displ.:     0.0364915 α      in ANC's #4, #3, #13, ...

........................................................................
.............................. CYCLE   24 ..............................
........................................................................
   1    -87.8196137 -0.878196E+02  0.186E-03    0.11       0.0  T
   2    -87.8196034  0.103428E-04  0.828E-03    0.11       1.8  T
   3    -87.8196133 -0.993992E-05  0.227E-03    0.11       6.5  T
   4    -87.8196139 -0.633761E-06  0.635E-04    0.11      23.2  T
   5    -87.8196140 -0.417041E-07  0.233E-04    0.11      63.3  T
   6    -87.8196140 -0.380396E-08  0.643E-05    0.11     229.4  T
   7    -87.8196140 -0.528345E-09  0.142E-05    0.11    1040.4  T
     SCC iter.                  ...        0 min,  0.048 sec
     gradient                   ...        0 min,  0.073 sec
 * total energy  :   -87.0320198 Eh     change       -0.2234260E-04 Eh
   gradient norm :     0.0036734 Eh/α   predicted    -0.1230525E-04 ( -44.92%)
   displ. norm   :     0.2221472 α      lambda       -0.7658519E-04
   maximum displ.:     0.1180898 α      in ANC's #4, #3, #13, ...

........................................................................
.............................. CYCLE   25 ..............................
........................................................................
   1    -87.8187340 -0.878187E+02  0.637E-03    0.11       0.0  T
   2    -87.8186950  0.389712E-04  0.165E-02    0.11       1.0  T
   3    -87.8187079 -0.129353E-04  0.139E-02    0.11       1.1  T
   4    -87.8187362 -0.282282E-04  0.131E-03    0.11      11.3  T
   5    -87.8187363 -0.122527E-06  0.428E-04    0.11      34.5  T
   6    -87.8187363 -0.124921E-08  0.131E-04    0.11     112.6  T
   7    -87.8187363 -0.131662E-08  0.435E-05    0.11     339.1  T
     SCC iter.                  ...        0 min,  0.046 sec
     gradient                   ...        0 min,  0.076 sec
 * total energy  :   -87.0320712 Eh     change       -0.5135788E-04 Eh
   gradient norm :     0.0018444 Eh/α   predicted    -0.4018664E-04 ( -21.75%)
   displ. norm   :     0.1932020 α      lambda       -0.2202824E-04
   maximum displ.:     0.1037355 α      in ANC's #3, #4, #1, ...

........................................................................
.............................. CYCLE   26 ..............................
........................................................................
   1    -87.8183451 -0.878183E+02  0.615E-03    0.11       0.0  T
   2    -87.8182340  0.111143E-03  0.275E-02    0.12       1.0  T
   3    -87.8183440 -0.110057E-03  0.560E-03    0.11       2.6  T
   4    -87.8183484 -0.434384E-05  0.800E-04    0.11      18.4  T
   5    -87.8183484 -0.285655E-07  0.351E-04    0.11      42.0  T
   6    -87.8183484 -0.829800E-08  0.867E-05    0.11     170.1  T
   7    -87.8183484 -0.505949E-09  0.425E-05    0.11     346.7  T
     SCC iter.                  ...        0 min,  0.048 sec
     gradient                   ...        0 min,  0.076 sec
 * total energy  :   -87.0320893 Eh     change       -0.1808066E-04 Eh
   gradient norm :     0.0021513 Eh/α   predicted    -0.1119816E-04 ( -38.07%)
   displ. norm   :     0.0410168 α      lambda       -0.1250062E-04
   maximum displ.:     0.0237680 α      in ANC's #3, #4, #1, ...

........................................................................
.............................. CYCLE   27 ..............................
........................................................................
   1    -87.8189537 -0.878190E+02  0.695E-03    0.11       0.0  T
   2    -87.8186030  0.350721E-03  0.488E-02    0.13       1.0  T
   3    -87.8189606 -0.357633E-03  0.209E-03    0.11       7.1  T
   4    -87.8189612 -0.597559E-06  0.337E-04    0.11      43.8  T
   5    -87.8189612  0.279113E-08  0.181E-04    0.11      81.3  T
   6    -87.8189612 -0.678824E-09  0.144E-04    0.11     102.2  T
     SCC iter.                  ...        0 min,  0.044 sec
     gradient                   ...        0 min,  0.075 sec
 * total energy  :   -87.0321003 Eh     change       -0.1100747E-04 Eh
   gradient norm :     0.0016189 Eh/α   predicted    -0.6340816E-05 ( -42.40%)
   displ. norm   :     0.2467985 α      lambda       -0.3930725E-04
   maximum displ.:     0.1397632 α      in ANC's #3, #4, #5, ...

........................................................................
.............................. CYCLE   28 ..............................
........................................................................
   1    -87.8198849 -0.878199E+02  0.434E-02    0.10       0.0  T
   2    -87.8157296  0.415529E-02  0.178E-01    0.22       1.0  T
   3    -87.8199431 -0.421343E-02  0.400E-02    0.12       1.0  T
   4    -87.8201739 -0.230803E-03  0.719E-03    0.11       2.1  T
   5    -87.8201815 -0.765576E-05  0.174E-03    0.11       8.5  T
   6    -87.8201818 -0.291048E-06  0.280E-04    0.11      52.6  T
   7    -87.8201818  0.502191E-07  0.611E-04    0.11      24.1  T
   8    -87.8201818 -0.555081E-07  0.687E-05    0.11     214.6  T
   9    -87.8201818 -0.699899E-09  0.136E-05    0.11    1084.7  T
     SCC iter.                  ...        0 min,  0.062 sec
     gradient                   ...        0 min,  0.075 sec
 * total energy  :   -87.0321349 Eh     change       -0.3458008E-04 Eh
   gradient norm :     0.0024624 Eh/α   predicted    -0.2018585E-04 ( -41.63%)
   displ. norm   :     0.1014861 α      lambda       -0.1504477E-04
   maximum displ.:     0.0581135 α      in ANC's #3, #4, #5, ...

........................................................................
.............................. CYCLE   29 ..............................
........................................................................
   1    -87.8196368 -0.878196E+02  0.135E-02    0.10       0.0  T
   2    -87.8185440  0.109281E-02  0.867E-02    0.14       1.0  T
   3    -87.8196614 -0.111740E-02  0.515E-03    0.11       2.9  T
   4    -87.8196651 -0.369502E-05  0.805E-04    0.11      18.3  T
   5    -87.8196652 -0.487100E-07  0.200E-04    0.11      73.7  T
   6    -87.8196652  0.164348E-07  0.371E-04    0.11      39.7  T
   7    -87.8196652 -0.199150E-07  0.595E-05    0.11     247.9  T
   8    -87.8196652 -0.316959E-09  0.260E-05    0.11     568.0  T
     SCC iter.                  ...        0 min,  0.049 sec
     gradient                   ...        0 min,  0.065 sec
 * total energy  :   -87.0321477 Eh     change       -0.1285863E-04 Eh
   gradient norm :     0.0021490 Eh/α   predicted    -0.7612979E-05 ( -40.79%)
   displ. norm   :     0.2278383 α      lambda       -0.3795523E-04
   maximum displ.:     0.1281030 α      in ANC's #3, #5, #21, ...

........................................................................
.............................. CYCLE   30 ..............................
........................................................................
   1    -87.8183263 -0.878183E+02  0.299E-02    0.10       0.0  T
   2    -87.8152175  0.310881E-02  0.150E-01    0.18       1.0  T
   3    -87.8184046 -0.318711E-02  0.204E-02    0.11       1.0  T
   4    -87.8184635 -0.589245E-04  0.353E-03    0.11       4.2  T
   5    -87.8184647 -0.121669E-05  0.229E-03    0.11       6.4  T
   6    -87.8184654 -0.680365E-06  0.202E-04    0.11      72.8  T
   7    -87.8184654 -0.221982E-08  0.963E-05    0.11     153.2  T
   8    -87.8184654 -0.554621E-09  0.530E-05    0.11     278.1  T
     SCC iter.                  ...        0 min,  0.052 sec
     gradient                   ...        0 min,  0.067 sec
 * total energy  :   -87.0321724 Eh     change       -0.2464083E-04 Eh
   gradient norm :     0.0020598 Eh/α   predicted    -0.1996397E-04 ( -18.98%)
   displ. norm   :     0.1007182 α      lambda       -0.1790627E-04
   maximum displ.:     0.0527498 α      in ANC's #3, #5, #14, ...

........................................................................
.............................. CYCLE   31 ..............................
........................................................................
   1    -87.8183919 -0.878184E+02  0.636E-03    0.11       0.0  T
   2    -87.8180998  0.292081E-03  0.446E-02    0.12       1.0  T
   3    -87.8183975 -0.297672E-03  0.166E-03    0.11       8.9  T
   4    -87.8183975 -0.402831E-07  0.125E-03    0.11      11.8  T
   5    -87.8183976 -0.156560E-06  0.270E-04    0.11      54.6  T
   6    -87.8183977 -0.506756E-08  0.982E-05    0.11     150.1  T
   7    -87.8183977 -0.115951E-08  0.221E-05    0.11     666.9  T
     SCC iter.                  ...        0 min,  0.044 sec
     gradient                   ...        0 min,  0.070 sec
 * total energy  :   -87.0321861 Eh     change       -0.1370503E-04 Eh
   gradient norm :     0.0020336 Eh/α   predicted    -0.9073512E-05 ( -33.79%)
   displ. norm   :     0.1261180 α      lambda       -0.2664248E-04
   maximum displ.:     0.0637451 α      in ANC's #3, #14, #21, ...

........................................................................
.............................. CYCLE   32 ..............................
........................................................................
   1    -87.8186975 -0.878187E+02  0.723E-03    0.11       0.0  T
   2    -87.8181520  0.545439E-03  0.601E-02    0.09       1.0  T
   3    -87.8187043 -0.552235E-03  0.189E-03    0.11       7.8  T
   4    -87.8187045 -0.218010E-06  0.935E-04    0.11      15.8  T
   5    -87.8187045 -0.351042E-08  0.581E-04    0.11      25.4  T
   6    -87.8187045 -0.428873E-07  0.926E-05    0.11     159.2  T
   7    -87.8187045 -0.303487E-09  0.329E-05    0.11     447.9  T
     SCC iter.                  ...        0 min,  0.047 sec
     gradient                   ...        0 min,  0.063 sec
 * total energy  :   -87.0322060 Eh     change       -0.1989453E-04 Eh
   gradient norm :     0.0021289 Eh/α   predicted    -0.1353584E-04 ( -31.96%)
   displ. norm   :     0.1533666 α      lambda       -0.3058213E-04
   maximum displ.:     0.0799418 α      in ANC's #3, #14, #21, ...

........................................................................
.............................. CYCLE   33 ..............................
........................................................................
   1    -87.8188683 -0.878189E+02  0.175E-02    0.11       0.0  T
   2    -87.8136920  0.517628E-02  0.184E-01    0.07       1.0  T
   3    -87.8189121 -0.522003E-02  0.402E-03    0.11       3.7  T
   4    -87.8189143 -0.223604E-05  0.953E-04    0.11      15.5  T
   5    -87.8189143 -0.148801E-07  0.508E-04    0.11      29.0  T
   6    -87.8189143  0.214697E-07  0.494E-04    0.11      29.9  T
   7    -87.8189143 -0.338362E-07  0.113E-04    0.11     130.2  T
   8    -87.8189143 -0.172831E-08  0.239E-05    0.11     617.9  T
     SCC iter.                  ...        0 min,  0.047 sec
     gradient                   ...        0 min,  0.065 sec
 * total energy  :   -87.0322294 Eh     change       -0.2339971E-04 Eh
   gradient norm :     0.0026427 Eh/α   predicted    -0.1565450E-04 ( -33.10%)
   displ. norm   :     0.1946373 α      lambda       -0.4434411E-04
   maximum displ.:     0.0942952 α      in ANC's #3, #14, #2, ...

........................................................................
.............................. CYCLE   34 ..............................
........................................................................
   1    -87.8193005 -0.878193E+02  0.323E-02    0.12       0.0  T
   2    -87.7931383  0.261622E-01  0.413E-01    0.03       1.0  T
   3    -87.8194376 -0.262993E-01  0.115E-02    0.11       1.3  T
   4    -87.8194577 -0.201392E-04  0.261E-03    0.11       5.7  T
   5    -87.8194585 -0.779291E-06  0.113E-03    0.11      13.0  T
   6    -87.8194578  0.691580E-06  0.229E-03    0.11       6.4  T
   7    -87.8194584 -0.642609E-06  0.959E-04    0.11      15.4  T
   8    -87.8194586 -0.128437E-06  0.251E-04    0.11      58.8  T
   9    -87.8194586 -0.896081E-08  0.388E-05    0.11     379.7  T
  10    -87.8194586 -0.813429E-10  0.292E-05    0.11     505.3  T
     SCC iter.                  ...        0 min,  0.060 sec
     gradient                   ...        0 min,  0.067 sec
 * total energy  :   -87.0322628 Eh     change       -0.3344567E-04 Eh
   gradient norm :     0.0033860 Eh/α   predicted    -0.2301412E-04 ( -31.19%)
   displ. norm   :     0.3275259 α      lambda       -0.5943945E-04
   maximum displ.:     0.1740851 α      in ANC's #3, #2, #21, ...

........................................................................
.............................. CYCLE   35 ..............................
........................................................................
   1    -87.8173607 -0.878174E+02  0.517E-02    0.13       0.0  T
   2    -87.7347541  0.826066E-01  0.734E-01    0.01       1.0  T
   3    -87.8176374 -0.828833E-01  0.270E-02    0.12       1.0  T
   4    -87.8177411 -0.103701E-03  0.816E-03    0.11       1.8  T
   5    -87.8177489 -0.784329E-05  0.402E-03    0.11       3.7  T
   6    -87.8177424  0.648865E-05  0.729E-03    0.11       2.0  T
   7    -87.8177492 -0.678732E-05  0.285E-03    0.11       5.2  T
   8    -87.8177504 -0.112824E-05  0.779E-04    0.11      18.9  T
   9    -87.8177504 -0.791458E-07  0.262E-04    0.11      56.3  T
  10    -87.8177504 -0.704637E-08  0.138E-04    0.11     107.1  T
  11    -87.8177504 -0.265794E-08  0.325E-05    0.11     454.3  T
     SCC iter.                  ...        0 min,  0.064 sec
     gradient                   ...        0 min,  0.066 sec
 * total energy  :   -87.0322910 Eh     change       -0.2822827E-04 Eh
   gradient norm :     0.0054040 Eh/α   predicted    -0.3292022E-04 (  16.62%)
   displ. norm   :     0.2062333 α      lambda       -0.1173831E-03
   maximum displ.:     0.0889153 α      in ANC's #4, #2, #7, ...

........................................................................
.............................. CYCLE   36 ..............................
........................................................................
   1    -87.8202326 -0.878202E+02  0.653E-02    0.14       0.0  T
   2    -87.6787451  0.141487E+00  0.961E-01    0.04       1.0  T
   3    -87.8206729 -0.141928E+00  0.348E-02    0.13       1.0  T
   4    -87.8208408 -0.167965E-03  0.121E-02    0.12       1.2  T
   5    -87.8208636 -0.227509E-04  0.282E-03    0.11       5.2  T
   6    -87.8208498  0.137328E-04  0.971E-03    0.11       1.5  T
   7    -87.8208597 -0.988452E-05  0.529E-03    0.11       2.8  T
   8    -87.8208635 -0.374850E-05  0.175E-03    0.11       8.4  T
   9    -87.8208639 -0.416360E-06  0.504E-04    0.11      29.2  T
  10    -87.8208639 -0.220753E-07  0.318E-04    0.11      46.4  T
  11    -87.8208639 -0.149301E-07  0.940E-06    0.11    1569.1  T
  12    -87.8208639  0.119229E-10  0.126E-05    0.11    1174.5  T
     SCC iter.                  ...        0 min,  0.072 sec
     gradient                   ...        0 min,  0.065 sec
 * total energy  :   -87.0323263 Eh     change       -0.3529835E-04 Eh
   gradient norm :     0.0053774 Eh/α   predicted    -0.6118913E-04 (  73.35%)
   displ. norm   :     0.0721425 α      lambda       -0.7314957E-04
   maximum displ.:     0.0323317 α      in ANC's #4, #8, #5, ...

........................................................................
.............................. CYCLE   37 ..............................
........................................................................
   1    -87.8201620 -0.878202E+02  0.301E-02    0.10       0.0  T
   2    -87.8174581  0.270388E-02  0.141E-01    0.19       1.0  T
   3    -87.8202286 -0.277050E-02  0.232E-02    0.12       1.0  T
   4    -87.8203053 -0.767387E-04  0.244E-03    0.11       6.0  T
   5    -87.8203061 -0.777305E-06  0.112E-03    0.11      13.1  T
   6    -87.8203062 -0.860048E-07  0.332E-04    0.11      44.4  T
   7    -87.8203062 -0.920826E-08  0.152E-04    0.11      96.8  T
   8    -87.8203062 -0.231232E-08  0.830E-05    0.11     177.7  T
     SCC iter.                  ...        0 min,  0.049 sec
     gradient                   ...        0 min,  0.058 sec
 * total energy  :   -87.0323823 Eh     change       -0.5594789E-04 Eh
   gradient norm :     0.0031601 Eh/α   predicted    -0.3676566E-04 ( -34.29%)
   displ. norm   :     0.2435287 α      lambda       -0.1066402E-03
   maximum displ.:     0.1053174 α      in ANC's #3, #2, #5, ...

........................................................................
.............................. CYCLE   38 ..............................
........................................................................
   1    -87.8179228 -0.878179E+02  0.332E-02    0.12       0.0  T
   2    -87.8025546  0.153682E-01  0.320E-01    0.05       1.0  T
   3    -87.8179886 -0.154340E-01  0.233E-02    0.12       1.0  T
   4    -87.8180647 -0.760537E-04  0.470E-03    0.11       3.1  T
   5    -87.8180576  0.710088E-05  0.780E-03    0.11       1.9  T
   6    -87.8180630 -0.544866E-05  0.422E-03    0.11       3.5  T
   7    -87.8180655 -0.249327E-05  0.103E-03    0.11      14.4  T
   8    -87.8180657 -0.144589E-06  0.238E-04    0.11      62.0  T
   9    -87.8180657 -0.678735E-08  0.770E-05    0.11     191.6  T
  10    -87.8180657 -0.412726E-09  0.498E-05    0.11     296.0  T
     SCC iter.                  ...        0 min,  0.052 sec
     gradient                   ...        0 min,  0.065 sec
 * total energy  :   -87.0324417 Eh     change       -0.5936550E-04 Eh
   gradient norm :     0.0052398 Eh/α   predicted    -0.5648293E-04 (  -4.86%)
   displ. norm   :     0.1314718 α      lambda       -0.8522383E-04
   maximum displ.:     0.0591533 α      in ANC's #3, #14, #9, ...

........................................................................
.............................. CYCLE   39 ..............................
........................................................................
   1    -87.8193894 -0.878194E+02  0.319E-02    0.10       0.0  T
   2    -87.8166415  0.274791E-02  0.143E-01    0.19       1.0  T
   3    -87.8194595 -0.281808E-02  0.250E-02    0.12       1.0  T
   4    -87.8195337 -0.741162E-04  0.941E-03    0.11       1.6  T
   5    -87.8195465 -0.128647E-04  0.261E-03    0.11       5.7  T
   6    -87.8195473 -0.788645E-06  0.195E-04    0.11      75.5  T
   7    -87.8195473  0.444544E-08  0.214E-04    0.11      68.9  T
   8    -87.8195473 -0.634854E-08  0.496E-05    0.11     297.0  T
     SCC iter.                  ...        0 min,  0.048 sec
     gradient                   ...        0 min,  0.065 sec
 * total energy  :   -87.0324699 Eh     change       -0.2825384E-04 Eh
   gradient norm :     0.0048226 Eh/α   predicted    -0.4336462E-04 (  53.48%)
   displ. norm   :     0.1449224 α      lambda       -0.5808116E-04
   maximum displ.:     0.0697261 α      in ANC's #2, #5, #3, ...

........................................................................
.............................. CYCLE   40 ..............................
........................................................................
   1    -87.8182815 -0.878183E+02  0.683E-02    0.14       0.0  T
   2    -87.6682676  0.150014E+00  0.990E-01    0.04       1.0  T
   3    -87.8187648 -0.150497E+00  0.368E-02    0.13       1.0  T
   4    -87.8189464 -0.181616E-03  0.139E-02    0.12       1.1  T
   5    -87.8189774 -0.309772E-04  0.262E-03    0.12       5.6  T
   6    -87.8189596  0.177639E-04  0.109E-02    0.11       1.3  T
   7    -87.8189723 -0.126780E-04  0.590E-03    0.11       2.5  T
   8    -87.8189770 -0.476465E-05  0.172E-03    0.12       8.6  T
   9    -87.8189774 -0.380737E-06  0.625E-04    0.12      23.6  T
  10    -87.8189775 -0.369261E-07  0.367E-04    0.12      40.2  T
  11    -87.8189775 -0.196954E-07  0.441E-05    0.12     334.2  T
  12    -87.8189775 -0.281503E-09  0.625E-06    0.12    2359.6  T
     SCC iter.                  ...        0 min,  0.072 sec
     gradient                   ...        0 min,  0.072 sec
 * total energy  :   -87.0325163 Eh     change       -0.4637318E-04 Eh
   gradient norm :     0.0040446 Eh/α   predicted    -0.2965210E-04 ( -36.06%)
   displ. norm   :     0.2351180 α      lambda       -0.8837874E-04
   maximum displ.:     0.1236205 α      in ANC's #2, #5, #21, ...

........................................................................
.............................. CYCLE   41 ..............................
........................................................................
   1    -87.8168188 -0.878168E+02  0.104E-01    0.18       0.0  T
   2    -87.5495018  0.267317E+00  0.133E+00    0.10       1.0  T
   3    -87.8176912 -0.268189E+00  0.671E-02    0.15       1.0  T
   4    -87.8181808 -0.489649E-03  0.361E-02    0.14       1.0  T
   5    -87.8183809 -0.200062E-03  0.661E-03    0.12       2.2  T
   6    -87.8183369  0.439551E-04  0.184E-02    0.11       1.0  T
   7    -87.8183738 -0.368838E-04  0.954E-03    0.12       1.5  T
   8    -87.8183867 -0.128620E-04  0.219E-03    0.12       6.7  T
   9    -87.8183872 -0.508827E-06  0.115E-03    0.12      12.9  T
  10    -87.8183873 -0.127259E-06  0.663E-04    0.12      22.2  T
  11    -87.8183874 -0.642272E-07  0.637E-05    0.12     231.4  T
  12    -87.8183874 -0.444317E-09  0.298E-05    0.12     494.5  T
     SCC iter.                  ...        0 min,  0.072 sec
     gradient                   ...        0 min,  0.067 sec
 * total energy  :   -87.0325673 Eh     change       -0.5105878E-04 Eh
   gradient norm :     0.0043982 Eh/α   predicted    -0.4663256E-04 (  -8.67%)
   displ. norm   :     0.0917157 α      lambda       -0.5988109E-04
   maximum displ.:     0.0374727 α      in ANC's #2, #3, #1, ...

........................................................................
.............................. CYCLE   42 ..............................
........................................................................
   1    -87.8191615 -0.878192E+02  0.426E-02    0.14       0.0  T
   2    -87.7794494  0.397122E-01  0.510E-01    0.03       1.0  T
   3    -87.8193810 -0.399316E-01  0.190E-02    0.13       1.0  T
   4    -87.8194255 -0.444898E-04  0.853E-03    0.13       1.7  T
   5    -87.8194346 -0.913388E-05  0.351E-03    0.12       4.2  T
   6    -87.8194364 -0.176991E-05  0.115E-03    0.12      12.8  T
   7    -87.8194362  0.162246E-06  0.152E-03    0.12       9.7  T
   8    -87.8194366 -0.338746E-06  0.245E-04    0.12      60.1  T
   9    -87.8194366 -0.760066E-08  0.939E-05    0.12     157.0  T
  10    -87.8194366 -0.281915E-09  0.814E-05    0.12     181.2  T
     SCC iter.                  ...        0 min,  0.060 sec
     gradient                   ...        0 min,  0.066 sec
 * total energy  :   -87.0326127 Eh     change       -0.4540371E-04 Eh
   gradient norm :     0.0035858 Eh/α   predicted    -0.3019559E-04 ( -33.50%)
   displ. norm   :     0.2741901 α      lambda       -0.1105704E-03
   maximum displ.:     0.1332360 α      in ANC's #2, #5, #9, ...
 * RMSD in coord.:     0.3664475 α      energy gain  -0.7248496E-03 Eh

generating ANC from model Hessian ...
Using Lindh-Hessian (1995)
 Shifting diagonal of input Hessian by   9.812981941757854E-003
 Lowest  eigenvalues of input Hessian
    0.000000    0.000000    0.000000    0.000000    0.000000    0.000000
    0.010000    0.010053    0.010379    0.010821    0.011493    0.011930
    0.012212    0.012661    0.013111    0.013949    0.014352    0.015629
 Highest eigenvalues
    2.016745    2.053407    2.120301    2.166922    2.261997    2.368798
 

........................................................................
.............................. CYCLE   43 ..............................
........................................................................
   1    -87.8185409 -0.878185E+02  0.792E-02    0.17       0.0  T
   2    -87.6543895  0.164151E+00  0.103E+00    0.05       1.0  T
   3    -87.8190179 -0.164628E+00  0.529E-02    0.16       1.0  T
   4    -87.8192721 -0.254157E-03  0.338E-02    0.14       1.0  T
   5    -87.8193965 -0.124399E-03  0.178E-02    0.14       1.0  T
   6    -87.8194447 -0.482572E-04  0.208E-03    0.13       7.1  T
   7    -87.8194433  0.142845E-05  0.367E-03    0.13       4.0  T
   8    -87.8194453 -0.199556E-05  0.483E-04    0.13      30.6  T
   9    -87.8194453 -0.270959E-07  0.220E-04    0.13      66.9  T
  10    -87.8194453 -0.802956E-09  0.205E-04    0.13      72.1  T
  11    -87.8194453 -0.472180E-08  0.100E-04    0.13     147.4  T
  12    -87.8194453 -0.137504E-08  0.257E-05    0.13     572.8  T
     SCC iter.                  ...        0 min,  0.072 sec
     gradient                   ...        0 min,  0.066 sec
 * total energy  :   -87.0326896 Eh     change       -0.7687492E-04 Eh
   gradient norm :     0.0051838 Eh/α   predicted     0.0000000E+00 (-100.00%)
   displ. norm   :     0.0455005 α      lambda       -0.6449642E-04
   maximum displ.:     0.0215299 α      in ANC's #21, #16, #18, ...

........................................................................
.............................. CYCLE   44 ..............................
........................................................................
   1    -87.8204285 -0.878204E+02  0.174E-02    0.12       0.0  T
   2    -87.8196208  0.807606E-03  0.771E-02    0.17       1.0  T
   3    -87.8204670 -0.846129E-03  0.716E-03    0.13       2.1  T
   4    -87.8204738 -0.681030E-05  0.979E-04    0.13      15.1  T
   5    -87.8204738 -0.443858E-08  0.411E-04    0.13      35.9  T
   6    -87.8204738  0.140815E-07  0.453E-04    0.13      32.5  T
   7    -87.8204738 -0.294969E-07  0.594E-05    0.13     248.2  T
   8    -87.8204738 -0.465590E-09  0.103E-05    0.13    1433.2  T
     SCC iter.                  ...        0 min,  0.048 sec
     gradient                   ...        0 min,  0.067 sec
 * total energy  :   -87.0327471 Eh     change       -0.5746361E-04 Eh
   gradient norm :     0.0027401 Eh/α   predicted    -0.3553682E-04 ( -38.16%)
   displ. norm   :     0.1432868 α      lambda       -0.1312888E-03
   maximum displ.:     0.0690571 α      in ANC's #21, #16, #18, ...

........................................................................
.............................. CYCLE   45 ..............................
........................................................................
   1    -87.8209763 -0.878210E+02  0.561E-02    0.11       0.0  T
   2    -87.8182818  0.269451E-02  0.156E-01    0.26       1.0  T
   3    -87.8210578 -0.277602E-02  0.530E-02    0.15       1.0  T
   4    -87.8214538 -0.395992E-03  0.826E-03    0.13       1.8  T
   5    -87.8214625 -0.870819E-05  0.115E-03    0.13      12.9  T
   6    -87.8214626 -0.100073E-06  0.496E-04    0.13      29.7  T
   7    -87.8214625  0.947497E-07  0.870E-04    0.13      17.0  T
   8    -87.8214626 -0.101811E-06  0.213E-04    0.13      69.3  T
   9    -87.8214626 -0.466254E-08  0.127E-04    0.13     116.2  T
  10    -87.8214626 -0.237486E-08  0.545E-06    0.13    2705.1  T
     SCC iter.                  ...        0 min,  0.059 sec
     gradient                   ...        0 min,  0.065 sec
 * total energy  :   -87.0328449 Eh     change       -0.9785409E-04 Eh
   gradient norm :     0.0028882 Eh/α   predicted    -0.6699510E-04 ( -31.54%)
   displ. norm   :     0.2538861 α      lambda       -0.1558097E-03
   maximum displ.:     0.1290205 α      in ANC's #16, #21, #18, ...

........................................................................
.............................. CYCLE   46 ..............................
........................................................................
   1    -87.8198797 -0.878199E+02  0.788E-02    0.10       0.0  T
   2    -87.8167203  0.315948E-02  0.183E-01    0.32       1.0  T
   3    -87.8197815 -0.306120E-02  0.859E-02    0.17       1.0  T
   4    -87.8207178 -0.936362E-03  0.293E-02    0.14       1.0  T
   5    -87.8208191 -0.101324E-03  0.121E-02    0.12       1.2  T
   6    -87.8208368 -0.176495E-04  0.583E-03    0.13       2.5  T
   7    -87.8208416 -0.485126E-05  0.166E-04    0.12      88.7  T
   8    -87.8208416  0.722741E-08  0.226E-04    0.12      65.3  T
   9    -87.8208416  0.737657E-09  0.246E-04    0.12      60.1  T
  10    -87.8208416 -0.878725E-08  0.306E-05    0.12     481.4  T
  11    -87.8208416 -0.128182E-09  0.870E-06    0.12    1695.3  T
     SCC iter.                  ...        0 min,  0.066 sec
     gradient                   ...        0 min,  0.067 sec
 * total energy  :   -87.0329716 Eh     change       -0.1266314E-03 Eh
   gradient norm :     0.0063079 Eh/α   predicted    -0.8292648E-04 ( -34.51%)
   displ. norm   :     0.4407734 α      lambda       -0.2316582E-03
   maximum displ.:     0.2269309 α      in ANC's #16, #21, #18, ...

........................................................................
.............................. CYCLE   47 ..............................
........................................................................
   1    -87.8154018 -0.878154E+02  0.886E-02    0.10       0.0  T
   2    -87.8119898  0.341205E-02  0.195E-01    0.34       1.0  T
   3    -87.8152225 -0.323268E-02  0.975E-02    0.17       1.0  T
   4    -87.8165172 -0.129476E-02  0.226E-02    0.13       1.0  T
   5    -87.8162276  0.289627E-03  0.487E-02    0.11       1.0  T
   6    -87.8165102 -0.282606E-03  0.227E-02    0.13       1.0  T
   7    -87.8165862 -0.760153E-04  0.143E-03    0.12      10.3  T
   8    -87.8165863 -0.102501E-06  0.111E-03    0.12      13.3  T
   9    -87.8165865 -0.183250E-06  0.184E-04    0.12      80.2  T
  10    -87.8165865 -0.455505E-08  0.368E-05    0.12     400.8  T
     SCC iter.                  ...        0 min,  0.060 sec
     gradient                   ...        0 min,  0.067 sec
 * total energy  :   -87.0329537 Eh     change        0.1782914E-04 Eh
   gradient norm :     0.0161305 Eh/α   predicted    -0.1383372E-03 (-875.91%)
   displ. norm   :     0.1923788 α      lambda       -0.4145471E-03
   maximum displ.:     0.1059714 α      in ANC's #16, #21, #18, ...

........................................................................
.............................. CYCLE   48 ..............................
........................................................................
   1    -87.8196877 -0.878197E+02  0.504E-02    0.15       0.0  T
   2    -87.7602186  0.594690E-01  0.623E-01    0.02       1.0  T
   3    -87.8199793 -0.597607E-01  0.232E-02    0.13       1.0  T
   4    -87.8200492 -0.699104E-04  0.816E-03    0.13       1.8  T
   5    -87.8200574 -0.815226E-05  0.190E-03    0.12       7.7  T
   6    -87.8200556  0.182412E-05  0.364E-03    0.12       4.1  T
   7    -87.8200571 -0.158039E-05  0.171E-03    0.12       8.6  T
   8    -87.8200576 -0.432944E-06  0.193E-04    0.12      76.5  T
   9    -87.8200576 -0.462417E-08  0.726E-05    0.12     203.0  T
     SCC iter.                  ...        0 min,  0.054 sec
     gradient                   ...        0 min,  0.066 sec
 * total energy  :   -87.0331446 Eh     change       -0.1908938E-03 Eh
   gradient norm :     0.0065030 Eh/α   predicted    -0.2149471E-03 (  12.60%)
   displ. norm   :     0.1078005 α      lambda       -0.1065037E-03
   maximum displ.:     0.0462159 α      in ANC's #16, #21, #4, ...

........................................................................
.............................. CYCLE   49 ..............................
........................................................................
   1    -87.8201662 -0.878202E+02  0.274E-02    0.14       0.0  T
   2    -87.8105932  0.957292E-02  0.252E-01    0.07       1.0  T
   3    -87.8202653 -0.967210E-02  0.870E-03    0.13       1.7  T
   4    -87.8202764 -0.110685E-04  0.154E-03    0.13       9.6  T
   5    -87.8202760  0.443404E-06  0.237E-03    0.13       6.2  T
   6    -87.8202757  0.231699E-06  0.244E-03    0.13       6.0  T
   7    -87.8202765 -0.773941E-06  0.841E-04    0.13      17.5  T
   8    -87.8202766 -0.989511E-07  0.151E-04    0.13      97.4  T
   9    -87.8202766 -0.276815E-08  0.545E-05    0.13     270.3  T
     SCC iter.                  ...        0 min,  0.045 sec
     gradient                   ...        0 min,  0.075 sec
 * total energy  :   -87.0332424 Eh     change       -0.9773936E-04 Eh
   gradient norm :     0.0051044 Eh/α   predicted    -0.5395870E-04 ( -44.79%)
   displ. norm   :     0.5409502 α      lambda       -0.4609549E-03
   maximum displ.:     0.2469371 α      in ANC's #16, #21, #4, ...

........................................................................
.............................. CYCLE   50 ..............................
........................................................................
   1    -87.8163700 -0.878164E+02  0.977E-02    0.20       0.0  T
   2    -87.6184999  0.197870E+00  0.114E+00    0.07       1.0  T
   3    -87.8169872 -0.198487E+00  0.680E-02    0.17       1.0  T
   4    -87.8174000 -0.412836E-03  0.425E-02    0.16       1.0  T
   5    -87.8176408 -0.240737E-03  0.147E-02    0.14       1.0  T
   6    -87.8176541 -0.133430E-04  0.117E-02    0.13       1.3  T
   7    -87.8176671 -0.129707E-04  0.707E-03    0.13       2.1  T
   8    -87.8176739 -0.687305E-05  0.193E-03    0.14       7.6  T
   9    -87.8176744 -0.463611E-06  0.768E-04    0.14      19.2  T
  10    -87.8176745 -0.456102E-07  0.525E-04    0.14      28.1  T
  11    -87.8176745 -0.356804E-07  0.178E-04    0.14      82.9  T
  12    -87.8176745 -0.437535E-08  0.392E-05    0.14     376.4  T
     SCC iter.                  ...        0 min,  0.081 sec
     gradient                   ...        0 min,  0.080 sec
 * total energy  :   -87.0334749 Eh     change       -0.2325160E-03 Eh
   gradient norm :     0.0108128 Eh/α   predicted    -0.2979694E-03 (  28.15%)
   displ. norm   :     0.0723472 α      lambda       -0.2034544E-03
   maximum displ.:     0.0276089 α      in ANC's #21, #16, #18, ...

........................................................................
.............................. CYCLE   51 ..............................
........................................................................
   1    -87.8202747 -0.878203E+02  0.367E-02    0.16       0.0  T
   2    -87.8042269  0.160478E-01  0.326E-01    0.06       1.0  T
   3    -87.8204374 -0.162105E-01  0.151E-02    0.14       1.0  T
   4    -87.8204674 -0.299496E-04  0.504E-03    0.14       2.9  T
   5    -87.8204697 -0.231699E-05  0.227E-03    0.14       6.5  T
   6    -87.8204691  0.555309E-06  0.269E-03    0.14       5.5  T
   7    -87.8204701 -0.970577E-06  0.919E-04    0.14      16.0  T
   8    -87.8204702 -0.120779E-06  0.164E-04    0.14      89.8  T
   9    -87.8204702 -0.367852E-08  0.423E-05    0.14     348.8  T
     SCC iter.                  ...        0 min,  0.063 sec
     gradient                   ...        0 min,  0.079 sec
 * total energy  :   -87.0335950 Eh     change       -0.1200655E-03 Eh
   gradient norm :     0.0059988 Eh/α   predicted    -0.1022734E-03 ( -14.82%)
   displ. norm   :     0.2304175 α      lambda       -0.1591912E-03
   maximum displ.:     0.0903027 α      in ANC's #1, #16, #4, ...

........................................................................
.............................. CYCLE   52 ..............................
........................................................................
   1    -87.8203500 -0.878203E+02  0.594E-02    0.18       0.0  T
   2    -87.7673659  0.529841E-01  0.591E-01    0.03       1.0  T
   3    -87.8206631 -0.532972E-01  0.356E-02    0.16       1.0  T
   4    -87.8207936 -0.130515E-03  0.199E-02    0.15       1.0  T
   5    -87.8208496 -0.560128E-04  0.595E-03    0.15       2.5  T
   6    -87.8208505 -0.878869E-06  0.569E-03    0.14       2.6  T
   7    -87.8208533 -0.285037E-05  0.359E-03    0.14       4.1  T
   8    -87.8208550 -0.170400E-05  0.110E-03    0.14      13.4  T
   9    -87.8208552 -0.156472E-06  0.378E-04    0.14      39.0  T
  10    -87.8208552 -0.957711E-08  0.272E-04    0.14      54.3  T
  11    -87.8208552 -0.100783E-07  0.608E-05    0.14     242.4  T
  12    -87.8208552 -0.519435E-09  0.990E-06    0.14    1489.9  T
     SCC iter.                  ...        0 min,  0.081 sec
     gradient                   ...        0 min,  0.077 sec
 * total energy  :   -87.0337336 Eh     change       -0.1386222E-03 Eh
   gradient norm :     0.0064318 Eh/α   predicted    -0.8384060E-04 ( -39.52%)
   displ. norm   :     0.5737490 α      lambda       -0.4061668E-03
   maximum displ.:     0.2345651 α      in ANC's #1, #16, #21, ...

[...]
C5-C3-O2=115.60                C5-C3-O4=125.55                C6-C5-C3=121.27                N26-C5-C3=121.31               
N26-C5-C6=117.16               O7-C6-C5=118.47                C8-C6-C5=119.68                C8-C6-O7=121.73                
H30-O7-C6=105.94               O9-C8-C6=126.28                N11-C8-C6=121.89               N11-C8-O9=111.82               
C10-O9-C8=117.12               H31-C10-O9=111.58              H32-C10-O9=111.50              H32-C10-H31=108.77             
H33-C10-O9=106.98              H33-C10-H31=109.11             H33-C10-H32=108.83             
 
 selected dihedral angles (degree)
 ---------------------------------
C3-O2-C1-H27= 60.85           C3-O2-C1-H28=180.35           C3-O2-C1-H29=299.79           O4-C3-O2-C1=  0.17            
C5-C3-O2-C1=179.20            C6-C5-C3-O2=177.93            C6-C5-C3-O4=356.89            N26-C5-C3-O2=  4.00           
N26-C5-C3-O4=182.96           O7-C6-C5-C3=356.74            O7-C6-C5-N26=170.92           C8-C6-C5-C3=180.74            
C8-C6-C5-N26=354.92           H30-O7-C6-C5=  4.78           H30-O7-C6-C8=180.69           O9-C8-C6-C5=175.71            
O9-C8-C6-O7=359.85            N11-C8-C6-C5=355.18           N11-C8-C6-O7=179.31           C10-O9-C8-C6=312.16           
C10-O9-C8-N11=132.65          H31-C10-O9-C8=314.67          H32-C10-O9-C8= 76.53          H33-C10-O9-C8=195.41          
           -------------------------------------------------
          |                Final Singlepoint                |
           -------------------------------------------------

          ...................................................
          :                      SETUP                      :
          :.................................................:
          :  # basis functions                 144          :
          :  # atomic orbitals                 144          :
          :  # shells                           92          :
          :  # electrons                       142          :
          :  # halogen bonds                     0          :
          :  max. iterations                   250          :
          :  Hamiltonian                  GFN1-xTB          :
          :  restarted?                      false          :
          :  GBSA solvation                   true          :
          :  PC potential                    false          :
          :  electronic temp.          300.0000000     K    :
          :  accuracy                    1.0000000          :
          :  -> integral cutoff          0.2500000E+02      :
          :  -> integral neglect         0.1000000E-07      :
          :  -> SCF convergence          0.1000000E-05 Eh   :
          :  -> wf. convergence          0.2000000E-04 e    :
          :  Broyden damping             0.4000000          :
          ...................................................

 iter      E             dE          RMSdq      gap      omega  full diag
   1    -87.8251663 -0.878252E+02  0.664E-06    0.23       0.0  T
   2    -87.8251663 -0.135003E-11  0.356E-06    0.23    4143.2  T
   3    -87.8251663 -0.611067E-12  0.137E-06    0.23   10789.2  T

   *** convergence criteria satisfied after 3 iterations ***

         #    Occupation            Energy/Eh            Energy/eV
      -------------------------------------------------------------
         1        2.0000           -0.8540413             -23.2396
       ...           ...                  ...                  ...
        65        2.0000           -0.4387271             -11.9384
        66        2.0000           -0.4301678             -11.7055
        67        2.0000           -0.4061506             -11.0519
        68        2.0000           -0.4056930             -11.0395
        69        2.0000           -0.3796405             -10.3305
        70        2.0000           -0.3791064             -10.3160
        71        1.9776           -0.3050735              -8.3015 (HOMO)
        72        0.0224           -0.2965639              -8.0699 (LUMO)
        73                         -0.2477870              -6.7426
        74                         -0.2256000              -6.1389
        75                         -0.1922263              -5.2307
        76                         -0.1834923              -4.9931
       ...                                ...                  ...
       144                          0.7324016              19.9297
      -------------------------------------------------------------
                  HL-Gap            0.0085096 Eh            0.2316 eV
             Fermi-level           -0.3008187 Eh           -8.1857 eV

 SCC (total)                   0 d,  0 h,  0 min,  0.133 sec
 SCC setup                      ...        0 min,  0.002 sec (  1.512%)
 Dispersion                     ...        0 min,  0.000 sec (  0.229%)
 classical contributions        ...        0 min,  0.000 sec (  0.076%)
 integral evaluation            ...        0 min,  0.033 sec ( 24.402%)
 iterations                     ...        0 min,  0.021 sec ( 15.516%)
 molecular gradient             ...        0 min,  0.076 sec ( 57.112%)
 printout                       ...        0 min,  0.002 sec (  1.134%)

         :::::::::::::::::::::::::::::::::::::::::::::::::::::
         ::                     SUMMARY                     ::
         :::::::::::::::::::::::::::::::::::::::::::::::::::::
         :: total energy             -87.035505774902 Eh    ::
         :: total w/o Gsasa/hb       -87.012687325297 Eh    ::
         :: gradient norm              0.000467313113 Eh/a0 ::
         :: HOMO-LUMO gap              0.231557323535 eV    ::
         ::.................................................::
         :: SCC energy               -87.825166313651 Eh    ::
         :: -> electrostatic           0.437799343431 Eh    ::
         :: -> Gsolv                  -0.123085565052 Eh    ::
         ::    -> Gelec               -0.100267115448 Eh    ::
         ::    -> Gsasa               -0.025851677313 Eh    ::
         ::    -> Ghb                 -0.004591051296 Eh    ::
         ::    -> Gshift               0.007624279005 Eh    ::
         :: repulsion energy           0.818921595004 Eh    ::
         :: dispersion energy         -0.029261056255 Eh    ::
         :: halogen bond corr.         0.000000000000 Eh    ::
         :: add. restraining           0.000000000000 Eh    ::
         :: total charge              -1.000000000000 e     ::
         :::::::::::::::::::::::::::::::::::::::::::::::::::::

           -------------------------------------------------
          |                Property Printout                |
           -------------------------------------------------

    * Orbital Energies and Occupations

         #    Occupation            Energy/Eh            Energy/eV
      -------------------------------------------------------------
         1        2.0000           -0.8540413             -23.2396
       ...           ...                  ...                  ...
        59        2.0000           -0.4667729             -12.7015
        60        2.0000           -0.4549103             -12.3787
        61        2.0000           -0.4498494             -12.2410
        62        2.0000           -0.4477950             -12.1851
        63        2.0000           -0.4428339             -12.0501
        64        2.0000           -0.4425274             -12.0418
        65        2.0000           -0.4387271             -11.9384
        66        2.0000           -0.4301678             -11.7055
        67        2.0000           -0.4061506             -11.0519
        68        2.0000           -0.4056930             -11.0395
        69        2.0000           -0.3796405             -10.3305
        70        2.0000           -0.3791064             -10.3160
        71        1.9776           -0.3050735              -8.3015 (HOMO)
        72        0.0224           -0.2965639              -8.0699 (LUMO)
        73                         -0.2477870              -6.7426
        74                         -0.2256000              -6.1389
        75                         -0.1922263              -5.2307
        76                         -0.1834923              -4.9931
        77                         -0.1387024              -3.7743
        78                         -0.1225019              -3.3334
        79                         -0.1163319              -3.1656
        80                         -0.1114969              -3.0340
        81                         -0.1090328              -2.9669
        82                         -0.1046279              -2.8471
       ...                                ...                  ...
       144                          0.7324016              19.9297
      -------------------------------------------------------------
                  HL-Gap            0.0085096 Eh            0.2316 eV
             Fermi-level           -0.3008187 Eh           -8.1857 eV

  Mulliken/CM5 charges         n(s)   n(p)   n(d)
     1C     0.18018  0.06177   0.965  2.854  0.000
     2O    -0.47316 -0.55269   1.698  4.775  0.000
     3C     0.48116  0.53750   0.967  2.552  0.000
     4O    -0.68739 -0.75718   1.743  4.944  0.000
     5C    -0.05179  0.01992   1.014  3.038  0.000
     6C     0.17575  0.20524   1.016  2.808  0.000
     7O    -0.58359 -0.76944   1.715  4.869  0.000
     8C     0.24065  0.32146   0.970  2.789  0.000
     9O    -0.47229 -0.55483   1.688  4.784  0.000
    10C     0.17579  0.05702   0.969  2.855  0.000
    11N    -0.32826 -0.55439   1.484  3.845  0.000
    12C     0.05394 -0.03412   0.988  2.958  0.000
    13C     0.23266  0.37961   1.014  2.753  0.000
    14C     0.15405  0.19465   1.065  2.781  0.000
    15C    -0.09139 -0.22939   1.015  3.077  0.000
    16C    -0.10751 -0.24884   1.021  3.087  0.000
    17N    -0.33582 -0.69517   1.430  3.906  0.000
    18C     0.45915  0.56932   0.972  2.569  0.000
    19O    -0.59938 -0.63928   1.729  4.870  0.000
    20C     0.32511  0.44984   1.012  2.663  0.000
    21N    -0.24216 -0.34528   1.569  3.673  0.000
    22N    -0.27852 -0.38652   1.566  3.713  0.000
    23C     0.38669  0.49560   1.004  2.609  0.000
    24C    -0.11139 -0.24884   1.011  3.100  0.000
    25O    -0.36448 -0.42122   1.698  4.666  0.000
    26N    -0.38390 -0.57056   1.538  3.845  0.000
    27H     0.02134  0.08269   0.979  0.000  0.000
    28H     0.01849  0.07854   0.982  0.000  0.000
    29H     0.02199  0.08348   0.978  0.000  0.000
    30H     0.37332  0.56412   0.627  0.000  0.000
    31H     0.01360  0.07338   0.986  0.000  0.000
    32H     0.02235  0.08530   0.978  0.000  0.000
    33H     0.01912  0.07890   0.981  0.000  0.000
    34H     0.03388  0.10115   0.966  0.000  0.000
    35H     0.01466  0.07627   0.985  0.000  0.000
    36H     0.01712  0.08597   0.983  0.000  0.000
    37H     0.03309  0.09180   0.967  0.000  0.000
    38H     0.02678  0.08269   0.973  0.000  0.000
    39H     0.04169  0.10338   0.958  0.000  0.000
    40H     0.04003  0.09531   0.960  0.000  0.000
    41H     0.03916  0.09619   0.961  0.000  0.000
    42H     0.04290  0.09851   0.957  0.000  0.000
    43H     0.25006  0.45698   0.750  0.000  0.000
    44H     0.07523  0.12983   0.925  0.000  0.000
    45H     0.07588  0.13032   0.924  0.000  0.000
    46H     0.06519  0.12101   0.935  0.000  0.000

Wiberg/Mayer (AO) data.
largest (>0.10) Wiberg bond orders for each atom

 ---------------------------------------------------------------------------
     #   Z sym  total        # sym  WBO       # sym  WBO       # sym  WBO
 ---------------------------------------------------------------------------
     1   6 C    3.913 --    28 H    0.987    27 H    0.981    29 H    0.981
                             2 O    0.943
     2   8 O    2.081 --     3 C    0.962     1 C    0.943
     3   6 C    3.861 --     4 O    1.388     5 C    1.350     2 O    0.962
     4   8 O    1.803 --     3 C    1.388     5 C    0.106    30 H    0.104
     5   6 C    3.855 --     3 C    1.350    26 N    1.108     6 C    1.084
                             4 O    0.106
     6   6 C    3.907 --     8 C    1.641     5 C    1.084     7 O    1.027
     7   8 O    1.981 --     6 C    1.027    30 H    0.769
     8   6 C    3.824 --     6 C    1.641    11 N    0.962     9 O    0.953
     9   8 O    2.044 --     8 C    0.953    10 C    0.935
    10   6 C    3.913 --    33 H    0.986    31 H    0.983    32 H    0.980
                             9 O    0.935
    11   7 N    3.141 --    13 C    1.003     8 C    0.962    12 C    0.946
    12   6 C    3.968 --    34 H    0.984    36 H    0.983    35 H    0.983
                            11 N    0.946
    13   6 C    3.939 --    26 N    1.711    11 N    1.003    14 C    0.964
    14   6 C    3.927 --    16 C    0.990    15 C    0.987    13 C    0.964
                            17 N    0.921
    15   6 C    3.992 --    38 H    0.987    14 C    0.987    37 H    0.984
                            39 H    0.982
    16   6 C    3.992 --    14 C    0.990    40 H    0.985    42 H    0.984
                            41 H    0.982
    17   7 N    3.357 --    18 C    1.261    14 C    0.921    43 H    0.902
                            19 O    0.175
    18   6 C    3.912 --    19 O    1.559    17 N    1.261    20 C    0.997
    19   8 O    1.865 --    18 C    1.559    17 N    0.175
    20   6 C    3.851 --    21 N    1.606    25 O    1.039    18 C    0.997
    21   7 N    2.967 --    20 C    1.606    22 N    1.189
    22   7 N    2.980 --    23 C    1.621    21 N    1.189
    23   6 C    3.865 --    22 N    1.621    25 O    1.068    24 C    1.030
    24   6 C    3.988 --    23 C    1.030    46 H    0.983    44 H    0.965
                            45 H    0.964
    25   8 O    2.300 --    23 C    1.068    20 C    1.039
    26   7 N    3.044 --    13 C    1.711     5 C    1.108
    27   1 H    1.018 --     1 C    0.981
    28   1 H    1.019 --     1 C    0.987
    29   1 H    1.018 --     1 C    0.981
    30   1 H    0.886 --     7 O    0.769     4 O    0.104
    31   1 H    1.013 --    10 C    0.983
    32   1 H    1.027 --    10 C    0.980
    33   1 H    1.019 --    10 C    0.986
    34   1 H    1.021 --    12 C    0.984
    35   1 H    1.008 --    12 C    0.983
    36   1 H    1.019 --    12 C    0.983
    37   1 H    1.021 --    15 C    0.984
    38   1 H    1.005 --    15 C    0.987
    39   1 H    1.018 --    15 C    0.982
    40   1 H    1.001 --    16 C    0.985
    41   1 H    1.005 --    16 C    0.982
    42   1 H    1.008 --    16 C    0.984
    43   1 H    0.947 --    17 N    0.902
    44   1 H    0.998 --    24 C    0.965
    45   1 H    0.997 --    24 C    0.964
    46   1 H    1.000 --    24 C    0.983
 ---------------------------------------------------------------------------

Topologies differ in total number of bonds
Writing topology from bond orders to xtbtopo.mol

 dipole moment from electron density (au)
     X       Y       Z   
   6.3023  -0.2290  -4.0297  total (Debye):   19.022

           -------------------------------------------------
          |                Geometry Summary                 |
           -------------------------------------------------

      molecular mass/u    :      366.3497991
   center of mass at/Å    :       -0.0564503      -0.0330520       0.2956433
  moments of inertia/u·Å² :        0.1285193E+04   0.4488863E+04   0.5179011E+04
rotational constants/cm⁻¹ :        0.1311681E-01   0.3755435E-02   0.3254991E-02

 * 38 selected distances

     #   Z          #   Z                                           value/Å
     1   6 C        2   8 O                                       1.4153084
     2   8 O        3   6 C                                       1.3933238
     3   6 C        5   6 C                                       1.3918564
     6   6 C        7   8 O                                       1.3716287
     6   6 C        8   6 C                                       1.3448814
     8   6 C        9   8 O                                       1.3925437
     9   8 O       10   6 C                                       1.4193346
    11   7 N       12   6 C                                       1.4733117
    14   6 C       15   6 C                                       1.5369236 (max)
    14   6 C       16   6 C                                       1.5340270
    14   6 C       17   7 N                                       1.4638537
    17   7 N       18   6 C                                       1.3473626
    18   6 C       19   8 O                                       1.2246899
    20   6 C       21   7 N                                       1.3001727
    22   7 N       23   6 C                                       1.2948198
    23   6 C       24   6 C                                       1.4795510
    20   6 C       25   8 O                                       1.3545878
    23   6 C       25   8 O                                       1.3450517
    13   6 C       26   7 N                                       1.2758829
     1   6 C       27   1 H                                       1.0969469
     1   6 C       28   1 H                                       1.0910424
     1   6 C       29   1 H                                       1.0966864
    10   6 C       31   1 H                                       1.0977094
    10   6 C       32   1 H                                       1.0968580
    10   6 C       33   1 H                                       1.0927221
    12   6 C       34   1 H                                       1.0897644
    12   6 C       35   1 H                                       1.0955485
    12   6 C       36   1 H                                       1.0878810
    15   6 C       37   1 H                                       1.0894257
    15   6 C       38   1 H                                       1.0886578
    15   6 C       39   1 H                                       1.0894242
    16   6 C       40   1 H                                       1.0889955
    16   6 C       41   1 H                                       1.0879534
    16   6 C       42   1 H                                       1.0892955
    17   7 N       43   1 H                                       1.0042669 (min)
    24   6 C       44   1 H                                       1.0895178
    24   6 C       45   1 H                                       1.0897414
    24   6 C       46   1 H                                       1.0871806

 * 5 distinct bonds (by element types)

   Z      Z             #   av. dist./Å        max./Å        min./Å
   1 H    6 C          18     1.0914084     1.0977094     1.0871806
   6 C    6 C           5     1.4574479     1.5369236     1.3448814
   1 H    7 N           1     1.0042669     1.0042669     1.0042669
   6 C    7 N           6     1.3592339     1.4733117     1.2758829
   6 C    8 O           8     1.3645586     1.4193346     1.2246899


optimized geometry written to: xtbopt.xyz


           -------------------------------------------------
          | TOTAL ENERGY              -87.035505774902 Eh   |
          | GRADIENT NORM               0.000467313113 Eh/α |
          | HOMO-LUMO GAP               0.231557323535 eV   |
           -------------------------------------------------

------------------------------------------------------------------------
 * finished run on 2023/06/20 at 15:34:24.066     
------------------------------------------------------------------------
 total:
 * wall-time:     0 d,  0 h,  0 min, 15.160 sec
 *  cpu-time:     0 d,  0 h,  0 min, 15.090 sec
 * ratio c/w:     0.995 speedup
 SCF:
 * wall-time:     0 d,  0 h,  0 min,  0.216 sec
 *  cpu-time:     0 d,  0 h,  0 min,  0.216 sec
 * ratio c/w:     0.999 speedup
 ANC optimizer:
 * wall-time:     0 d,  0 h,  0 min, 14.850 sec
 *  cpu-time:     0 d,  0 h,  0 min, 14.825 sec
 * ratio c/w:     0.998 speedup

