16
 energy: -34.296795368862 gnorm: 0.000891029509 xtb: 6.5.1 (579679a)
C            3.21240778978468       -0.00267572728614        0.95311262836847
O            1.82080909583131        0.09433533134145        0.62531713850486
C            1.42038953737454       -0.54508836582216       -0.46424182035979
O            2.14036314993371       -1.19239174576107       -1.18565606694956
C           -0.03340472636715       -0.38174434016517       -0.70278363809855
N           -0.71906657768490       -0.88980952546524       -1.68318628832318
N           -2.00362236109645       -0.48741569420259       -1.51281282994831
C           -2.02781319866941        0.24312126360348       -0.43730714262119
C           -3.19589297611639        0.91318819521225        0.17269360092636
O           -0.81510753079022        0.34665902705876        0.11986177736752
H            3.48168498268919       -1.04658029845535        1.12630673895785
H            3.81640858993933        0.39849109466762        0.13648030502156
H            3.35685850334110        0.58330552957565        1.85794497369989
H           -4.06659148327894        0.78495373263519       -0.46569626920356
H           -3.39888939254674        0.48478651381124        1.15438981471417
H           -2.98853540234377        1.97442700925206        0.30557907794334
