      -----------------------------------------------------------      
     |                   =====================                   |     
     |                           x T B                           |     
     |                   =====================                   |     
     |                         S. Grimme                         |     
     |          Mulliken Center for Theoretical Chemistry        |     
     |                    University of Bonn                     |     
      -----------------------------------------------------------      

   * xtb version 6.5.1 (579679a) compiled by 'ehlert@majestix' on 2022-07-11

   xtb is free software: you can redistribute it and/or modify it under
   the terms of the GNU Lesser General Public License as published by
   the Free Software Foundation, either version 3 of the License, or
   (at your option) any later version.
   
   xtb is distributed in the hope that it will be useful,
   but WITHOUT ANY WARRANTY; without even the implied warranty of
   MERCHANTABILITY or FITNESS FOR A PARTICULAR PURPOSE.  See the
   GNU Lesser General Public License for more details.
   
   Cite this work as:
   * C. Bannwarth, E. Caldeweyher, S. Ehlert, A. Hansen, P. Pracht,
     J. Seibert, S. Spicher, S. Grimme, WIREs Comput. Mol. Sci., 2020, 11,
     e01493. DOI: 10.1002/wcms.1493
   
   for GFN2-xTB:
   * C. Bannwarth, S. Ehlert and S. Grimme., J. Chem. Theory Comput., 2019,
     15, 1652-1671. DOI: 10.1021/acs.jctc.8b01176
   for GFN1-xTB:
   * S. Grimme, C. Bannwarth, P. Shushkov, J. Chem. Theory Comput., 2017,
     13, 1989-2009. DOI: 10.1021/acs.jctc.7b00118
   for GFN0-xTB:
   * P. Pracht, E. Caldeweyher, S. Ehlert, S. Grimme, ChemRxiv, 2019, preprint.
     DOI: 10.26434/chemrxiv.8326202.v1
   for GFN-FF:
   * S. Spicher and S. Grimme, Angew. Chem. Int. Ed., 2020, 59, 15665-15673.
     DOI: 10.1002/anie.202004239
   
   for ALPB and GBSA implicit solvation:
   * S. Ehlert, M. Stahn, S. Spicher, S. Grimme, J. Chem. Theory Comput.,
     2021, 17, 4250-4261. DOI: 10.1021/acs.jctc.1c00471
   
   for DFT-D4:
   * E. Caldeweyher, C. Bannwarth and S. Grimme, J. Chem. Phys., 2017,
     147, 034112. DOI: 10.1063/1.4993215
   * E. Caldeweyher, S. Ehlert, A. Hansen, H. Neugebauer, S. Spicher,
     C. Bannwarth and S. Grimme, J. Chem. Phys., 2019, 150, 154122.
     DOI: 10.1063/1.5090222
   * E. Caldeweyher, J.-M. Mewes, S. Ehlert and S. Grimme, Phys. Chem. Chem. Phys.
     2020, 22, 8499-8512. DOI: 10.1039/D0CP00502A
   
   for sTDA-xTB:
   * S. Grimme and C. Bannwarth, J. Chem. Phys., 2016, 145, 054103.
     DOI: 10.1063/1.4959605
   
   in the mass-spec context:
   * V. Asgeirsson, C. Bauer and S. Grimme, Chem. Sci., 2017, 8, 4879.
     DOI: 10.1039/c7sc00601b
   * J. Koopman and S. Grimme, ACS Omega 2019, 4, 12, 15120-15133.
     DOI: 10.1021/acsomega.9b02011
   
   for metadynamics refer to:
   * S. Grimme, J. Chem. Theory Comput., 2019, 155, 2847-2862
     DOI: 10.1021/acs.jctc.9b00143
   
   for SPH calculations refer to:
   * S. Spicher and S. Grimme, J. Chem. Theory Comput., 2021, 17, 1701-1714
     DOI: 10.1021/acs.jctc.0c01306
   
   with help from (in alphabetical order)
   P. Atkinson, C. Bannwarth, F. Bohle, G. Brandenburg, E. Caldeweyher
   M. Checinski, S. Dohm, S. Ehlert, S. Ehrlich, I. Gerasimov, C. Hölzer
   A. Katbashev, J. Koopman, C. Lavigne, S. Lehtola, F. März, M. Müller,
   F. Musil, H. Neugebauer, J. Pisarek, C. Plett, P. Pracht, F. Pultar,
   J. Seibert, P. Shushkov, S. Spicher, M. Stahn, M. Steiner, T. Strunk,
   J. Stückrath, T. Rose, and J. Unsleber
   
 * started run on 2023/06/21 at 17:22:48.436     

           -------------------------------------------------
          |                Calculation Setup                |
           -------------------------------------------------

          program call               : /lustre/hpc/kemi/ree/PhD/git/ReactivityQM/dep/xtb-6.5.1/bin/xtb --gfn 1 /lustre/hpc/kemi/ree/PhD/git/ReactivityQM/calculations/R02oxygendeprot/reac01prodN07/conf05/R02oxygendeprot_reac01prodN07_conf05_gfn1.xyz --opt --vfukui --chrg 0 --uhf 0 --alpb DMSO
          hostname                   : node070
          coordinate file            : /lustre/hpc/kemi/ree/PhD/git/ReactivityQM/calculations/R02oxygendeprot/reac01prodN07/conf05/R02oxygendeprot_reac01prodN07_conf05_gfn1.xyz
          omp threads                :                     1

   ID    Z sym.   atoms
    1    6 C      1, 3, 5, 7-10, 12, 14, 17-19, 22, 24
    2    8 O      2, 4, 13, 20, 23, 25
    3    7 N      6, 11, 15, 16, 21
    4    1 H      26-42

           -------------------------------------------------
          |                 G F N 1 - x T B                 |
           -------------------------------------------------

        Reference                      10.1021/acs.jctc.7b00118
      * Hamiltonian:
        H0-scaling (s, p, d)           1.850000    2.250000    2.000000
        zeta-weighting                 0.000000
      * Dispersion:
        s8                             2.400000
        a1                             0.630000
        a2                             5.000000
        s9                             0.000000
      * Repulsion:
        kExp                           1.500000
        rExp                           1.000000
      * Coulomb:
        alpha                          2.000000
        third order                    atomic
        anisotropic                    false
      * Halogen bond correction:
        rad-scale                      1.300000
        damping                        0.440000

      * Solvation model:               ALPB
        Solvent                        DMSO
        Parameter file                 internal GFN1-xTB/ALPB
        Dielectric constant                4.6680E+01
        Reference state                gsolv [1 M gas/solution]
        Free energy shift                  7.6243E-03 Eh       4.7843E+00 kcal/mol
        Temperature                        2.9815E+02 K
        Density                            1.1000E+00 kg/L
        Solvent mass                       7.8130E+01 g/mol
        Interaction kernel             P16
        Born radius scaling (c1)           1.7672E+00
        Born radii integrator          GBOBC
        Born offset                        0.0000E+00 a0       0.0000E+00 AA
        H-bond correction              true
        Ion screening                  false
        Surface tension                    1.0000E-05 Eh       1.5569E+01 dyn/cm
        Grid points                               230 per atom

          ...................................................
          :                      SETUP                      :
          :.................................................:
          :  # basis functions                 134          :
          :  # atomic orbitals                 134          :
          :  # shells                           84          :
          :  # electrons                       134          :
          :  # halogen bonds                     0          :
          :  max. iterations                   250          :
          :  Hamiltonian                  GFN1-xTB          :
          :  restarted?                      false          :
          :  GBSA solvation                   true          :
          :  PC potential                    false          :
          :  electronic temp.          300.0000000     K    :
          :  accuracy                    1.0000000          :
          :  -> integral cutoff          0.2500000E+02      :
          :  -> integral neglect         0.1000000E-07      :
          :  -> SCF convergence          0.1000000E-05 Eh   :
          :  -> wf. convergence          0.2000000E-04 e    :
          :  Broyden damping             0.4000000          :
          ...................................................

 iter      E             dE          RMSdq      gap      omega  full diag
   1    -83.3259377 -0.833259E+02  0.856E+00    2.60       0.0  T
   2    -83.6950252 -0.369088E+00  0.509E+00    1.01       1.0  T
   3    -83.2655316  0.429494E+00  0.245E+00    0.33       1.0  T
   4    -83.6341925 -0.368661E+00  0.125E+00    2.51       1.0  T
   5    -83.6972259 -0.630334E-01  0.607E-01    2.02       1.0  T
   6    -83.7061574 -0.893151E-02  0.432E-01    1.34       1.0  T
   7    -83.7123365 -0.617907E-02  0.267E-01    0.69       1.0  T
   8    -83.7110028  0.133367E-02  0.208E-01    0.08       1.0  T
   9    -83.7147664 -0.376354E-02  0.152E-01    0.28       1.0  T
  10    -83.7158833 -0.111691E-02  0.999E-02    0.20       1.0  T
  11    -83.7170545 -0.117117E-02  0.136E-02    0.13       1.1  T
  12    -83.7169044  0.150100E-03  0.371E-02    0.16       1.0  T
  13    -83.7168882  0.161308E-04  0.379E-02    0.12       1.0  T
  14    -83.7170462 -0.157998E-03  0.163E-02    0.15       1.0  T
  15    -83.7170802 -0.339525E-04  0.184E-03    0.14       8.4  T
  16    -83.7170806 -0.452643E-06  0.185E-04    0.14      83.4  T
  17    -83.7170805  0.910957E-07  0.851E-04    0.14      18.1  T
  18    -83.7170806 -0.955448E-07  0.211E-05    0.14     729.7  T

   *** convergence criteria satisfied after 18 iterations ***

         #    Occupation            Energy/Eh            Energy/eV
      -------------------------------------------------------------
         1        2.0000           -0.9176134             -24.9695
       ...           ...                  ...                  ...
        61        2.0000           -0.4661409             -12.6843
        62        2.0000           -0.4558363             -12.4039
        63        2.0000           -0.4537444             -12.3470
        64        2.0000           -0.4468303             -12.1589
        65        2.0000           -0.4331967             -11.7879
        66        2.0000           -0.3868107             -10.5257
        67        1.8719           -0.3710454             -10.0967 (HOMO)
        68        0.1281           -0.3659496              -9.9580 (LUMO)
        69                         -0.3490590              -9.4984
        70                         -0.2809852              -7.6460
        71                         -0.2551815              -6.9438
        72                         -0.2322175              -6.3190
       ...                                ...                  ...
       134                          0.8044085              21.8891
      -------------------------------------------------------------
                  HL-Gap            0.0050958 Eh            0.1387 eV
             Fermi-level           -0.3684975 Eh          -10.0273 eV

 SCC (total)                   0 d,  0 h,  0 min,  0.175 sec
 SCC setup                      ...        0 min,  0.001 sec (  0.713%)
 Dispersion                     ...        0 min,  0.000 sec (  0.118%)
 classical contributions        ...        0 min,  0.000 sec (  0.048%)
 integral evaluation            ...        0 min,  0.019 sec ( 10.737%)
 iterations                     ...        0 min,  0.097 sec ( 55.251%)
 molecular gradient             ...        0 min,  0.057 sec ( 32.396%)
 printout                       ...        0 min,  0.001 sec (  0.718%)

         :::::::::::::::::::::::::::::::::::::::::::::::::::::
         ::                     SUMMARY                     ::
         :::::::::::::::::::::::::::::::::::::::::::::::::::::
         :: total energy             -82.953301073623 Eh    ::
         :: total w/o Gsasa/hb       -82.931382688306 Eh    ::
         :: gradient norm              0.153336093950 Eh/a0 ::
         :: HOMO-LUMO gap              0.138663742757 eV    ::
         ::.................................................::
         :: SCC energy               -83.717080634192 Eh    ::
         :: -> electrostatic           0.455682022245 Eh    ::
         :: -> Gsolv                  -0.105257281447 Eh    ::
         ::    -> Gelec               -0.083338896129 Eh    ::
         ::    -> Gsasa               -0.024893396559 Eh    ::
         ::    -> Ghb                 -0.004649267763 Eh    ::
         ::    -> Gshift               0.007624279005 Eh    ::
         :: repulsion energy           0.788729618911 Eh    ::
         :: dispersion energy         -0.024950058342 Eh    ::
         :: halogen bond corr.         0.000000000000 Eh    ::
         :: add. restraining           0.000000000000 Eh    ::
         :: total charge               0.000000000002 e     ::
         :::::::::::::::::::::::::::::::::::::::::::::::::::::

      ----------------------------------------------------------- 
     |                   =====================                   |
     |                        A N C O P T                        |
     |                   =====================                   |
     |               Approximate Normal Coordinate               |
     |                Rational Function Optimizer                |
      ----------------------------------------------------------- 

          ...................................................
          :                      SETUP                      :
          :.................................................:
          :   optimization level            normal          :
          :   max. optcycles                   200          :
          :   ANC micro-cycles                  20          :
          :   degrees of freedom               120          :
          :.................................................:
          :   RF solver                   davidson          :
          :   write xtbopt.log                true          :
          :   linear?                        false          :
          :   energy convergence         0.5000000E-05 Eh   :
          :   grad. convergence          0.1000000E-02 Eh/α :
          :   maximium RF displ.         1.0000000          :
          :   Hlow (freq-cutoff)         0.1000000E-01      :
          :   Hmax (freq-cutoff)         5.0000000          :
          :   S6 in model hess.         20.0000000          :
          ...................................................

generating ANC from model Hessian ...
Using Lindh-Hessian (1995)
 Shifting diagonal of input Hessian by   9.791285909170305E-003
 Lowest  eigenvalues of input Hessian
    0.000000    0.000000    0.000000    0.000000    0.000000    0.000000
    0.010000    0.010139    0.010317    0.010729    0.011911    0.012692
    0.013018    0.014427    0.014721    0.015627    0.016348    0.017293
 Highest eigenvalues
    2.083093    2.085035    2.255508    2.260778    2.334624    2.455474
 

........................................................................
.............................. CYCLE    1 ..............................
........................................................................
   1    -83.7170806 -0.837171E+02  0.920E-05    0.14       0.0  T
   2    -83.7170806  0.281056E-07  0.470E-04    0.14      32.8  T
   3    -83.7170806 -0.292133E-07  0.307E-06    0.14    5019.1  T
   4    -83.7170806  0.952127E-12  0.328E-06    0.14    4699.7  T
     SCC iter.                  ...        0 min,  0.022 sec
     gradient                   ...        0 min,  0.055 sec
 * total energy  :   -82.9533011 Eh     change       -0.4995115E-10 Eh
   gradient norm :     0.1533385 Eh/α   predicted     0.0000000E+00 (-100.00%)
   displ. norm   :     0.2891172 α      lambda       -0.2225437E-01
   maximum displ.:     0.0954197 α      in ANC's #26, #35, #64, ...

........................................................................
.............................. CYCLE    2 ..............................
........................................................................
   1    -83.7388265 -0.837388E+02  0.135E-01    0.54       0.0  T
   2    -83.7401297 -0.130325E-02  0.603E-02    0.19       1.0  T
   3    -83.7402554 -0.125649E-03  0.258E-02    0.21       1.0  T
   4    -83.7401053  0.150100E-03  0.435E-02    0.16       1.0  T
   5    -83.7402776 -0.172319E-03  0.160E-02    0.18       1.0  T
   6    -83.7402811 -0.349999E-05  0.590E-03    0.19       2.6  T
   7    -83.7402833 -0.214209E-05  0.112E-03    0.19      13.8  T
   8    -83.7402832  0.377636E-07  0.103E-03    0.19      15.0  T
   9    -83.7402833 -0.928377E-07  0.401E-04    0.19      38.5  T
  10    -83.7402833 -0.159668E-07  0.364E-05    0.19     423.8  T
  11    -83.7402833  0.257785E-10  0.367E-05    0.19     420.4  T
     SCC iter.                  ...        0 min,  0.057 sec
     gradient                   ...        0 min,  0.057 sec
 * total energy  :   -82.9700234 Eh     change       -0.1672229E-01 Eh
   gradient norm :     0.0856119 Eh/α   predicted    -0.1206939E-01 ( -27.82%)
   displ. norm   :     0.3054503 α      lambda       -0.1234280E-01
   maximum displ.:     0.1016313 α      in ANC's #26, #20, #35, ...

........................................................................
.............................. CYCLE    3 ..............................
........................................................................
   1    -83.7635691 -0.837636E+02  0.103E-01    0.63       0.0  T
   2    -83.7639707 -0.401555E-03  0.396E-02    0.49       1.0  T
   3    -83.7640187 -0.479834E-04  0.204E-02    0.46       1.0  T
   4    -83.7640235 -0.486435E-05  0.784E-03    0.42       2.0  T
   5    -83.7640236 -0.878515E-07  0.281E-03    0.41       5.5  T
   6    -83.7640237 -0.107182E-06  0.712E-04    0.41      21.7  T
   7    -83.7640237 -0.967057E-08  0.169E-04    0.41      91.5  T
   8    -83.7640237 -0.362917E-09  0.670E-05    0.41     230.2  T
     SCC iter.                  ...        0 min,  0.043 sec
     gradient                   ...        0 min,  0.057 sec
 * total energy  :   -82.9767443 Eh     change       -0.6720901E-02 Eh
   gradient norm :     0.0247464 Eh/α   predicted    -0.6748668E-02 (   0.41%)
   displ. norm   :     0.1859504 α      lambda       -0.1202066E-02
   maximum displ.:     0.0692474 α      in ANC's #6, #1, #18, ...

........................................................................
.............................. CYCLE    4 ..............................
........................................................................
   1    -83.7636965 -0.837637E+02  0.181E-02    0.44       0.0  T
   2    -83.7637112 -0.147715E-04  0.780E-03    0.45       2.0  T
   3    -83.7637126 -0.141577E-05  0.357E-03    0.45       4.3  T
   4    -83.7637127 -0.935694E-08  0.134E-03    0.45      11.5  T
   5    -83.7637127 -0.172151E-07  0.260E-04    0.45      59.4  T
   6    -83.7637127 -0.145791E-08  0.707E-05    0.45     218.2  T
   7    -83.7637127 -0.833467E-10  0.189E-05    0.45     815.0  T
     SCC iter.                  ...        0 min,  0.038 sec
     gradient                   ...        0 min,  0.057 sec
 * total energy  :   -82.9776526 Eh     change       -0.9083405E-03 Eh
   gradient norm :     0.0127449 Eh/α   predicted    -0.6218169E-03 ( -31.54%)
   displ. norm   :     0.2842721 α      lambda       -0.9506503E-03
   maximum displ.:     0.1288161 α      in ANC's #1, #6, #2, ...

........................................................................
.............................. CYCLE    5 ..............................
........................................................................
   1    -83.7636156 -0.837636E+02  0.194E-02    0.47       0.0  T
   2    -83.7636321 -0.165437E-04  0.912E-03    0.48       1.7  T
   3    -83.7636340 -0.185505E-05  0.469E-03    0.48       3.3  T
   4    -83.7636340 -0.456733E-07  0.149E-03    0.48      10.3  T
   5    -83.7636340 -0.151118E-07  0.270E-04    0.48      57.1  T
   6    -83.7636340 -0.217094E-08  0.779E-05    0.48     198.0  T
   7    -83.7636340 -0.112976E-09  0.252E-05    0.48     612.2  T
     SCC iter.                  ...        0 min,  0.038 sec
     gradient                   ...        0 min,  0.057 sec
 * total energy  :   -82.9782630 Eh     change       -0.6103525E-03 Eh
   gradient norm :     0.0072247 Eh/α   predicted    -0.5137436E-03 ( -15.83%)
   displ. norm   :     0.2200728 α      lambda       -0.3195921E-03
   maximum displ.:     0.1176473 α      in ANC's #1, #6, #2, ...

........................................................................
.............................. CYCLE    6 ..............................
........................................................................
   1    -83.7642049 -0.837642E+02  0.726E-03    0.49       0.0  T
   2    -83.7642069 -0.209476E-05  0.330E-03    0.50       4.7  T
   3    -83.7642072 -0.248812E-06  0.183E-03    0.50       8.4  T
   4    -83.7642072 -0.137399E-07  0.516E-04    0.50      29.9  T
   5    -83.7642072 -0.128639E-08  0.109E-04    0.50     141.1  T
   6    -83.7642072 -0.345494E-09  0.327E-05    0.50     471.8  T
     SCC iter.                  ...        0 min,  0.032 sec
     gradient                   ...        0 min,  0.057 sec
 * total energy  :   -82.9785152 Eh     change       -0.2522715E-03 Eh
   gradient norm :     0.0081347 Eh/α   predicted    -0.1675364E-03 ( -33.59%)
   displ. norm   :     0.3402464 α      lambda       -0.4042500E-03
   maximum displ.:     0.1853649 α      in ANC's #1, #6, #2, ...

........................................................................
.............................. CYCLE    7 ..............................
........................................................................
   1    -83.7648004 -0.837648E+02  0.713E-03    0.50       0.0  T
   2    -83.7648019 -0.148570E-05  0.276E-03    0.50       5.6  T
   3    -83.7648020 -0.107839E-06  0.167E-03    0.51       9.3  T
   4    -83.7648020 -0.113823E-07  0.519E-04    0.51      29.7  T
   5    -83.7648020 -0.114215E-08  0.104E-04    0.51     147.9  T
   6    -83.7648020 -0.283364E-09  0.315E-05    0.51     489.2  T
     SCC iter.                  ...        0 min,  0.032 sec
     gradient                   ...        0 min,  0.057 sec
 * total energy  :   -82.9788337 Eh     change       -0.3184358E-03 Eh
   gradient norm :     0.0075064 Eh/α   predicted    -0.2255259E-03 ( -29.18%)
   displ. norm   :     0.4132958 α      lambda       -0.3982440E-03
   maximum displ.:     0.2327289 α      in ANC's #1, #6, #4, ...

........................................................................
.............................. CYCLE    8 ..............................
........................................................................
   1    -83.7649861 -0.837650E+02  0.668E-03    0.50       0.0  T
   2    -83.7649875 -0.138796E-05  0.263E-03    0.50       5.9  T
   3    -83.7649876 -0.623234E-07  0.143E-03    0.50      10.8  T
   4    -83.7649876 -0.425764E-08  0.565E-04    0.50      27.3  T
   5    -83.7649876 -0.238194E-08  0.764E-05    0.50     202.0  T
   6    -83.7649876 -0.126590E-09  0.264E-05    0.50     584.5  T
     SCC iter.                  ...        0 min,  0.032 sec
     gradient                   ...        0 min,  0.056 sec
 * total energy  :   -82.9791487 Eh     change       -0.3150629E-03 Eh
   gradient norm :     0.0069640 Eh/α   predicted    -0.2331357E-03 ( -26.00%)
   displ. norm   :     0.4338390 α      lambda       -0.3731008E-03
   maximum displ.:     0.2522585 α      in ANC's #1, #6, #4, ...

........................................................................
.............................. CYCLE    9 ..............................
........................................................................
   1    -83.7653861 -0.837654E+02  0.649E-03    0.49       0.0  T
   2    -83.7653878 -0.165974E-05  0.288E-03    0.50       5.4  T
   3    -83.7653879 -0.141147E-06  0.141E-03    0.49      10.9  T
   4    -83.7653879 -0.697331E-08  0.553E-04    0.49      27.9  T
   5    -83.7653879 -0.164476E-08  0.901E-05    0.49     171.3  T
   6    -83.7653879 -0.191946E-09  0.233E-05    0.49     663.1  T
     SCC iter.                  ...        0 min,  0.032 sec
     gradient                   ...        0 min,  0.056 sec
 * total energy  :   -82.9794561 Eh     change       -0.3073735E-03 Eh
   gradient norm :     0.0070338 Eh/α   predicted    -0.2216625E-03 ( -27.88%)
   displ. norm   :     0.4472260 α      lambda       -0.3897490E-03
   maximum displ.:     0.2674700 α      in ANC's #1, #6, #4, ...

........................................................................
.............................. CYCLE   10 ..............................
........................................................................
   1    -83.7663110 -0.837663E+02  0.740E-03    0.49       0.0  T
   2    -83.7663133 -0.228986E-05  0.323E-03    0.48       4.8  T
   3    -83.7663136 -0.240747E-06  0.156E-03    0.48       9.9  T
   4    -83.7663136 -0.972928E-08  0.534E-04    0.48      28.9  T
   5    -83.7663136 -0.144144E-08  0.133E-04    0.48     116.1  T
   6    -83.7663136 -0.384063E-09  0.315E-05    0.48     489.4  T
     SCC iter.                  ...        0 min,  0.032 sec
     gradient                   ...        0 min,  0.056 sec
 * total energy  :   -82.9797748 Eh     change       -0.3186800E-03 Eh
   gradient norm :     0.0071016 Eh/α   predicted    -0.2338581E-03 ( -26.62%)
   displ. norm   :     0.4562309 α      lambda       -0.3700329E-03
   maximum displ.:     0.2793984 α      in ANC's #1, #4, #6, ...

........................................................................
.............................. CYCLE   11 ..............................
........................................................................
   1    -83.7670298 -0.837670E+02  0.675E-03    0.48       0.0  T
   2    -83.7670314 -0.164749E-05  0.274E-03    0.48       5.6  T
   3    -83.7670316 -0.179536E-06  0.140E-03    0.48      11.0  T
   4    -83.7670316 -0.815005E-08  0.443E-04    0.48      34.8  T
   5    -83.7670316 -0.115166E-08  0.127E-04    0.48     121.1  T
   6    -83.7670316 -0.278504E-09  0.303E-05    0.48     509.9  T
     SCC iter.                  ...        0 min,  0.032 sec
     gradient                   ...        0 min,  0.056 sec
 * total energy  :   -82.9800697 Eh     change       -0.2949327E-03 Eh
   gradient norm :     0.0063640 Eh/α   predicted    -0.2235278E-03 ( -24.21%)
   displ. norm   :     0.4222329 α      lambda       -0.2814450E-03
   maximum displ.:     0.2709292 α      in ANC's #1, #4, #2, ...

........................................................................
.............................. CYCLE   12 ..............................
........................................................................
   1    -83.7673451 -0.837673E+02  0.524E-03    0.48       0.0  T
   2    -83.7673460 -0.857460E-06  0.222E-03    0.48       7.0  T
   3    -83.7673460 -0.562195E-07  0.119E-03    0.48      13.0  T
   4    -83.7673461 -0.533684E-08  0.433E-04    0.48      35.6  T
   5    -83.7673461 -0.115470E-08  0.938E-05    0.48     164.5  T
   6    -83.7673461 -0.117112E-09  0.230E-05    0.48     670.7  T
     SCC iter.                  ...        0 min,  0.032 sec
     gradient                   ...        0 min,  0.056 sec
 * total energy  :   -82.9802854 Eh     change       -0.2156801E-03 Eh
   gradient norm :     0.0052312 Eh/α   predicted    -0.1658111E-03 ( -23.12%)
   displ. norm   :     0.3133583 α      lambda       -0.1704799E-03
   maximum displ.:     0.2147106 α      in ANC's #1, #4, #2, ...

........................................................................
.............................. CYCLE   13 ..............................
........................................................................
   1    -83.7679971 -0.837680E+02  0.516E-03    0.49       0.0  T
   2    -83.7679983 -0.118637E-05  0.218E-03    0.49       7.1  T
   3    -83.7679983 -0.698195E-07  0.106E-03    0.50      14.6  T
   4    -83.7679983 -0.290376E-08  0.489E-04    0.50      31.6  T
   5    -83.7679983 -0.120157E-08  0.796E-05    0.50     193.9  T
   6    -83.7679983 -0.134193E-09  0.196E-05    0.50     786.9  T
     SCC iter.                  ...        0 min,  0.033 sec
     gradient                   ...        0 min,  0.057 sec
 * total energy  :   -82.9804237 Eh     change       -0.1383259E-03 Eh
   gradient norm :     0.0036975 Eh/α   predicted    -0.9361452E-04 ( -32.32%)
   displ. norm   :     0.2692220 α      lambda       -0.1343819E-03
   maximum displ.:     0.1929578 α      in ANC's #1, #4, #2, ...

........................................................................
.............................. CYCLE   14 ..............................
........................................................................
   1    -83.7679898 -0.837680E+02  0.479E-03    0.51       0.0  T
   2    -83.7679908 -0.103428E-05  0.209E-03    0.51       7.4  T
   3    -83.7679909 -0.952996E-07  0.923E-04    0.51      16.7  T
   4    -83.7679909 -0.367750E-08  0.396E-04    0.51      39.0  T
   5    -83.7679909 -0.506887E-09  0.886E-05    0.51     174.2  T
   6    -83.7679909 -0.196849E-09  0.213E-05    0.51     725.8  T
     SCC iter.                  ...        0 min,  0.031 sec
     gradient                   ...        0 min,  0.056 sec
 * total energy  :   -82.9805364 Eh     change       -0.1127141E-03 Eh
   gradient norm :     0.0030253 Eh/α   predicted    -0.7206374E-04 ( -36.06%)
   displ. norm   :     0.2153216 α      lambda       -0.1121685E-03
   maximum displ.:     0.1633482 α      in ANC's #1, #4, #2, ...

........................................................................
.............................. CYCLE   15 ..............................
........................................................................
   1    -83.7686665 -0.837687E+02  0.373E-03    0.51       0.0  T
   2    -83.7686671 -0.574623E-06  0.145E-03    0.52      10.6  T
   3    -83.7686671 -0.417453E-07  0.650E-04    0.52      23.8  T
   4    -83.7686671 -0.206575E-08  0.286E-04    0.52      54.0  T
   5    -83.7686671 -0.311942E-09  0.641E-05    0.52     240.8  T
   6    -83.7686671 -0.100783E-09  0.193E-05    0.52     799.9  T
     SCC iter.                  ...        0 min,  0.032 sec
     gradient                   ...        0 min,  0.057 sec
 * total energy  :   -82.9806340 Eh     change       -0.9752735E-04 Eh
   gradient norm :     0.0031764 Eh/α   predicted    -0.5868793E-04 ( -39.82%)
   displ. norm   :     0.2197726 α      lambda       -0.1143193E-03
   maximum displ.:     0.1678412 α      in ANC's #1, #4, #2, ...

........................................................................
.............................. CYCLE   16 ..............................
........................................................................
   1    -83.7682616 -0.837683E+02  0.296E-03    0.52       0.0  T
   2    -83.7682619 -0.342810E-06  0.101E-03    0.52      15.3  T
   3    -83.7682619 -0.227244E-07  0.490E-04    0.52      31.5  T
   4    -83.7682619 -0.166754E-08  0.214E-04    0.52      72.1  T
   5    -83.7682619 -0.250239E-09  0.490E-05    0.52     314.9  T
   6    -83.7682619 -0.277538E-10  0.167E-05    0.52     926.6  T
     SCC iter.                  ...        0 min,  0.032 sec
     gradient                   ...        0 min,  0.055 sec
 * total energy  :   -82.9807339 Eh     change       -0.9994022E-04 Eh
   gradient norm :     0.0032506 Eh/α   predicted    -0.5992142E-04 ( -40.04%)
   displ. norm   :     0.2247886 α      lambda       -0.1132118E-03
   maximum displ.:     0.1740211 α      in ANC's #1, #4, #6, ...

........................................................................
.............................. CYCLE   17 ..............................
........................................................................
   1    -83.7688184 -0.837688E+02  0.307E-03    0.53       0.0  T
   2    -83.7688187 -0.306461E-06  0.122E-03    0.53      12.7  T
   3    -83.7688188 -0.204857E-07  0.593E-04    0.53      26.0  T
   4    -83.7688188 -0.178403E-08  0.264E-04    0.53      58.6  T
   5    -83.7688188 -0.450257E-09  0.416E-05    0.53     370.5  T
   6    -83.7688188 -0.233200E-10  0.124E-05    0.53    1240.4  T
     SCC iter.                  ...        0 min,  0.031 sec
     gradient                   ...        0 min,  0.055 sec
 * total energy  :   -82.9808298 Eh     change       -0.9593865E-04 Eh
   gradient norm :     0.0032128 Eh/α   predicted    -0.5946664E-04 ( -38.02%)
   displ. norm   :     0.2088982 α      lambda       -0.9280895E-04
   maximum displ.:     0.1636798 α      in ANC's #1, #4, #17, ...

........................................................................
.............................. CYCLE   18 ..............................
........................................................................
   1    -83.7681599 -0.837682E+02  0.331E-03    0.53       0.0  T
   2    -83.7681603 -0.380629E-06  0.163E-03    0.53       9.5  T
   3    -83.7681604 -0.465416E-07  0.725E-04    0.53      21.3  T
   4    -83.7681604 -0.160473E-08  0.261E-04    0.53      59.2  T
   5    -83.7681604 -0.368388E-09  0.428E-05    0.53     360.3  T
   6    -83.7681604 -0.392788E-10  0.127E-05    0.53    1219.6  T
     SCC iter.                  ...        0 min,  0.033 sec
     gradient                   ...        0 min,  0.057 sec
 * total energy  :   -82.9809073 Eh     change       -0.7745217E-04 Eh
   gradient norm :     0.0023970 Eh/α   predicted    -0.4843208E-04 ( -37.47%)
   displ. norm   :     0.1675064 α      lambda       -0.6830755E-04
   maximum displ.:     0.1353244 α      in ANC's #1, #4, #6, ...

........................................................................
.............................. CYCLE   19 ..............................
........................................................................
   1    -83.7684745 -0.837685E+02  0.282E-03    0.53       0.0  T
   2    -83.7684748 -0.328510E-06  0.137E-03    0.53      11.2  T
   3    -83.7684748 -0.327894E-07  0.609E-04    0.53      25.3  T
   4    -83.7684748 -0.107256E-08  0.243E-04    0.53      63.6  T
   5    -83.7684748 -0.294719E-09  0.438E-05    0.53     351.9  T
   6    -83.7684748 -0.462421E-10  0.121E-05    0.53    1275.9  T
     SCC iter.                  ...        0 min,  0.033 sec
     gradient                   ...        0 min,  0.056 sec
 * total energy  :   -82.9809671 Eh     change       -0.5979402E-04 Eh
   gradient norm :     0.0016942 Eh/α   predicted    -0.3511236E-04 ( -41.28%)
   displ. norm   :     0.2161892 α      lambda       -0.5887971E-04
   maximum displ.:     0.1785102 α      in ANC's #1, #4, #3, ...

........................................................................
.............................. CYCLE   20 ..............................
........................................................................
   1    -83.7684419 -0.837684E+02  0.326E-03    0.53       0.0  T
   2    -83.7684423 -0.430817E-06  0.157E-03    0.53       9.8  T
   3    -83.7684424 -0.423237E-07  0.695E-04    0.53      22.2  T
   4    -83.7684424 -0.198234E-08  0.281E-04    0.53      55.0  T
   5    -83.7684424 -0.334481E-09  0.553E-05    0.53     278.8  T
   6    -83.7684424 -0.726601E-10  0.157E-05    0.53     985.1  T
     SCC iter.                  ...        0 min,  0.033 sec
     gradient                   ...        0 min,  0.056 sec
 * total energy  :   -82.9810436 Eh     change       -0.7650634E-04 Eh
   gradient norm :     0.0019267 Eh/α   predicted    -0.3005450E-04 ( -60.72%)
   displ. norm   :     0.1848036 α      lambda       -0.5249841E-04
   maximum displ.:     0.1544825 α      in ANC's #1, #4, #3, ...
 * RMSD in coord.:     0.7229849 α      energy gain  -0.2774252E-01 Eh

generating ANC from model Hessian ...
Using Lindh-Hessian (1995)
 Shifting diagonal of input Hessian by   9.755488431343492E-003
 Lowest  eigenvalues of input Hessian
    0.000000    0.000000    0.000000    0.000000    0.000000    0.000000
    0.010000    0.010138    0.010343    0.010650    0.011826    0.012592
    0.012908    0.014155    0.015753    0.016145    0.017094    0.017989
 Highest eigenvalues
    2.211158    2.228170    2.240767    2.310038    2.370473    2.446996
 

........................................................................
.............................. CYCLE   21 ..............................
........................................................................
   1    -83.7684864 -0.837685E+02  0.159E-03    0.53       0.0  T
   2    -83.7684864 -0.921000E-07  0.668E-04    0.53      23.1  T
   3    -83.7684865 -0.603023E-08  0.363E-04    0.53      42.5  T
   4    -83.7684865 -0.679862E-09  0.134E-04    0.53     115.2  T
   5    -83.7684865 -0.579092E-10  0.319E-05    0.53     483.6  T
     SCC iter.                  ...        0 min,  0.026 sec
     gradient                   ...        0 min,  0.054 sec
 * total energy  :   -82.9811144 Eh     change       -0.7084277E-04 Eh
   gradient norm :     0.0024189 Eh/α   predicted     0.0000000E+00 (-100.00%)
   displ. norm   :     0.0470755 α      lambda       -0.1768264E-04
   maximum displ.:     0.0400862 α      in ANC's #1, #4, #6, ...

........................................................................
.............................. CYCLE   22 ..............................
........................................................................
   1    -83.7687234 -0.837687E+02  0.178E-03    0.53       0.0  T
   2    -83.7687235 -0.125736E-06  0.816E-04    0.53      18.9  T
   3    -83.7687235 -0.137191E-07  0.326E-04    0.53      47.3  T
   4    -83.7687235 -0.127699E-09  0.134E-04    0.53     115.5  T
   5    -83.7687235 -0.883347E-10  0.197E-05    0.53     783.0  T
     SCC iter.                  ...        0 min,  0.027 sec
     gradient                   ...        0 min,  0.056 sec
 * total energy  :   -82.9811430 Eh     change       -0.2852290E-04 Eh
   gradient norm :     0.0013837 Eh/α   predicted    -0.1544257E-04 ( -45.86%)
   displ. norm   :     0.1674152 α      lambda       -0.6244067E-04
   maximum displ.:     0.1284774 α      in ANC's #1, #4, #6, ...

........................................................................
.............................. CYCLE   23 ..............................
........................................................................
   1    -83.7689506 -0.837690E+02  0.505E-03    0.54       0.0  T
   2    -83.7689517 -0.111427E-05  0.235E-03    0.54       6.6  T
   3    -83.7689518 -0.111378E-06  0.933E-04    0.54      16.5  T
   4    -83.7689518 -0.141038E-08  0.408E-04    0.54      37.9  T
   5    -83.7689518 -0.780176E-09  0.676E-05    0.54     228.2  T
   6    -83.7689518 -0.157712E-09  0.182E-05    0.54     848.8  T
     SCC iter.                  ...        0 min,  0.033 sec
     gradient                   ...        0 min,  0.056 sec
 * total energy  :   -82.9812170 Eh     change       -0.7400146E-04 Eh
   gradient norm :     0.0019413 Eh/α   predicted    -0.3160991E-04 ( -57.28%)
   displ. norm   :     0.1880403 α      lambda       -0.4970322E-04
   maximum displ.:     0.1427746 α      in ANC's #1, #3, #4, ...

........................................................................
.............................. CYCLE   24 ..............................
........................................................................
   1    -83.7687198 -0.837687E+02  0.233E-03    0.54       0.0  T
   2    -83.7687200 -0.217517E-06  0.111E-03    0.54      13.9  T
   3    -83.7687201 -0.194438E-07  0.530E-04    0.54      29.1  T
   4    -83.7687201 -0.713655E-09  0.190E-04    0.54      81.2  T
   5    -83.7687201 -0.245407E-09  0.380E-05    0.54     406.3  T
     SCC iter.                  ...        0 min,  0.027 sec
     gradient                   ...        0 min,  0.056 sec
 * total energy  :   -82.9812789 Eh     change       -0.6189874E-04 Eh
   gradient norm :     0.0028546 Eh/α   predicted    -0.2525094E-04 ( -59.21%)
   displ. norm   :     0.1215081 α      lambda       -0.4589167E-04
   maximum displ.:     0.0927901 α      in ANC's #1, #3, #4, ...

........................................................................
.............................. CYCLE   25 ..............................
........................................................................
   1    -83.7687021 -0.837687E+02  0.933E-04    0.55       0.0  T
   2    -83.7687021 -0.301117E-07  0.414E-04    0.55      37.3  T
   3    -83.7687021 -0.272529E-08  0.195E-04    0.55      79.2  T
   4    -83.7687021 -0.190099E-09  0.665E-05    0.55     232.1  T
     SCC iter.                  ...        0 min,  0.021 sec
     gradient                   ...        0 min,  0.056 sec
 * total energy  :   -82.9813202 Eh     change       -0.4131930E-04 Eh
   gradient norm :     0.0024942 Eh/α   predicted    -0.2328556E-04 ( -43.64%)
   displ. norm   :     0.1325063 α      lambda       -0.4972174E-04
   maximum displ.:     0.1000930 α      in ANC's #1, #3, #2, ...

........................................................................
.............................. CYCLE   26 ..............................
........................................................................
   1    -83.7688113 -0.837688E+02  0.171E-03    0.54       0.0  T
   2    -83.7688115 -0.129068E-06  0.876E-04    0.54      17.6  T
   3    -83.7688115 -0.127314E-07  0.386E-04    0.54      40.0  T
   4    -83.7688115 -0.352458E-09  0.150E-04    0.54     103.1  T
   5    -83.7688115 -0.939480E-10  0.291E-05    0.54     530.4  T
     SCC iter.                  ...        0 min,  0.026 sec
     gradient                   ...        0 min,  0.055 sec
 * total energy  :   -82.9813663 Eh     change       -0.4613107E-04 Eh
   gradient norm :     0.0015943 Eh/α   predicted    -0.2529929E-04 ( -45.16%)
   displ. norm   :     0.2305158 α      lambda       -0.5646053E-04
   maximum displ.:     0.1741436 α      in ANC's #1, #3, #2, ...

........................................................................
.............................. CYCLE   27 ..............................
........................................................................
   1    -83.7688535 -0.837689E+02  0.351E-03    0.54       0.0  T
   2    -83.7688541 -0.547764E-06  0.174E-03    0.54       8.9  T
   3    -83.7688541 -0.518034E-07  0.763E-04    0.54      20.2  T
   4    -83.7688541 -0.170786E-08  0.310E-04    0.54      49.8  T
   5    -83.7688541 -0.394067E-09  0.587E-05    0.54     262.9  T
   6    -83.7688541 -0.848672E-10  0.176E-05    0.54     878.8  T
     SCC iter.                  ...        0 min,  0.031 sec
     gradient                   ...        0 min,  0.055 sec
 * total energy  :   -82.9814410 Eh     change       -0.7464997E-04 Eh
   gradient norm :     0.0011560 Eh/α   predicted    -0.2890032E-04 ( -61.29%)
   displ. norm   :     0.2248148 α      lambda       -0.4967556E-04
   maximum displ.:     0.1724787 α      in ANC's #1, #3, #2, ...

........................................................................
.............................. CYCLE   28 ..............................
........................................................................
   1    -83.7688411 -0.837688E+02  0.250E-03    0.54       0.0  T
   2    -83.7688414 -0.259967E-06  0.118E-03    0.54      13.0  T
   3    -83.7688414 -0.252164E-07  0.523E-04    0.54      29.5  T
   4    -83.7688414 -0.144810E-08  0.213E-04    0.54      72.3  T
   5    -83.7688414 -0.182666E-09  0.439E-05    0.54     351.3  T
   6    -83.7688414 -0.334381E-10  0.144E-05    0.54    1070.8  T
     SCC iter.                  ...        0 min,  0.032 sec
     gradient                   ...        0 min,  0.057 sec
 * total energy  :   -82.9815102 Eh     change       -0.6926620E-04 Eh
   gradient norm :     0.0020017 Eh/α   predicted    -0.2539665E-04 ( -63.33%)
   displ. norm   :     0.1490399 α      lambda       -0.5027222E-04
   maximum displ.:     0.1150070 α      in ANC's #1, #3, #2, ...

........................................................................
.............................. CYCLE   29 ..............................
........................................................................
   1    -83.7689619 -0.837690E+02  0.123E-03    0.54       0.0  T
   2    -83.7689619 -0.510141E-07  0.539E-04    0.54      28.6  T
   3    -83.7689620 -0.562794E-08  0.249E-04    0.54      62.1  T
   4    -83.7689620 -0.607201E-09  0.908E-05    0.54     169.9  T
   5    -83.7689620 -0.365645E-10  0.240E-05    0.54     643.3  T
     SCC iter.                  ...        0 min,  0.026 sec
     gradient                   ...        0 min,  0.056 sec
 * total energy  :   -82.9815588 Eh     change       -0.4859303E-04 Eh
   gradient norm :     0.0020728 Eh/α   predicted    -0.2569613E-04 ( -47.12%)
   displ. norm   :     0.1768364 α      lambda       -0.6150913E-04
   maximum displ.:     0.1359081 α      in ANC's #1, #3, #2, ...

........................................................................
.............................. CYCLE   30 ..............................
........................................................................
   1    -83.7690437 -0.837690E+02  0.137E-03    0.55       0.0  T
   2    -83.7690438 -0.564028E-07  0.512E-04    0.55      30.1  T
   3    -83.7690438 -0.507906E-08  0.241E-04    0.55      64.1  T
   4    -83.7690438 -0.640568E-09  0.813E-05    0.55     189.9  T
   5    -83.7690438 -0.524949E-10  0.266E-05    0.55     581.2  T
     SCC iter.                  ...        0 min,  0.026 sec
     gradient                   ...        0 min,  0.056 sec
 * total energy  :   -82.9816179 Eh     change       -0.5909021E-04 Eh
   gradient norm :     0.0017842 Eh/α   predicted    -0.3171716E-04 ( -46.32%)
   displ. norm   :     0.3192154 α      lambda       -0.7153506E-04
   maximum displ.:     0.2449712 α      in ANC's #1, #3, #2, ...

........................................................................
.............................. CYCLE   31 ..............................
........................................................................
   1    -83.7688263 -0.837688E+02  0.253E-03    0.55       0.0  T
   2    -83.7688264 -0.177421E-06  0.924E-04    0.56      16.7  T
   3    -83.7688265 -0.123931E-07  0.452E-04    0.56      34.1  T
   4    -83.7688265 -0.163570E-08  0.138E-04    0.56     111.4  T
   5    -83.7688265 -0.129006E-09  0.469E-05    0.56     329.1  T
     SCC iter.                  ...        0 min,  0.026 sec
     gradient                   ...        0 min,  0.057 sec
 * total energy  :   -82.9817145 Eh     change       -0.9658332E-04 Eh
   gradient norm :     0.0012753 Eh/α   predicted    -0.3738812E-04 ( -61.29%)
   displ. norm   :     0.2915784 α      lambda       -0.5700202E-04
   maximum displ.:     0.2265921 α      in ANC's #1, #3, #2, ...

........................................................................
.............................. CYCLE   32 ..............................
........................................................................
   1    -83.7688949 -0.837689E+02  0.229E-03    0.56       0.0  T
   2    -83.7688951 -0.174167E-06  0.862E-04    0.56      17.9  T
   3    -83.7688951 -0.123910E-07  0.421E-04    0.56      36.7  T
   4    -83.7688951 -0.157169E-08  0.134E-04    0.56     114.9  T
   5    -83.7688951 -0.107462E-09  0.431E-05    0.56     358.2  T
     SCC iter.                  ...        0 min,  0.026 sec
     gradient                   ...        0 min,  0.057 sec
 * total energy  :   -82.9817916 Eh     change       -0.7712466E-04 Eh
   gradient norm :     0.0009901 Eh/α   predicted    -0.2957820E-04 ( -61.65%)
   displ. norm   :     0.2410677 α      lambda       -0.4326029E-04
   maximum displ.:     0.1900494 α      in ANC's #1, #3, #2, ...

........................................................................
.............................. CYCLE   33 ..............................
........................................................................
   1    -83.7689470 -0.837689E+02  0.185E-03    0.57       0.0  T
   2    -83.7689471 -0.982779E-07  0.733E-04    0.57      21.1  T
   3    -83.7689471 -0.801295E-08  0.345E-04    0.57      44.7  T
   4    -83.7689471 -0.998412E-09  0.937E-05    0.57     164.7  T
   5    -83.7689471 -0.875104E-10  0.330E-05    0.57     467.7  T
     SCC iter.                  ...        0 min,  0.026 sec
     gradient                   ...        0 min,  0.057 sec
 * total energy  :   -82.9818513 Eh     change       -0.5967716E-04 Eh
   gradient norm :     0.0009787 Eh/α   predicted    -0.2218912E-04 ( -62.82%)
   displ. norm   :     0.2074521 α      lambda       -0.3717667E-04
   maximum displ.:     0.1663192 α      in ANC's #1, #3, #2, ...

........................................................................
.............................. CYCLE   34 ..............................
........................................................................
   1    -83.7693656 -0.837694E+02  0.188E-03    0.57       0.0  T
   2    -83.7693658 -0.147486E-06  0.830E-04    0.57      18.6  T
   3    -83.7693658 -0.169239E-07  0.378E-04    0.57      40.8  T
   4    -83.7693658 -0.111039E-08  0.119E-04    0.57     129.4  T
   5    -83.7693658 -0.794103E-10  0.372E-05    0.57     414.8  T
     SCC iter.                  ...        0 min,  0.026 sec
     gradient                   ...        0 min,  0.057 sec
 * total energy  :   -82.9819028 Eh     change       -0.5152876E-04 Eh
   gradient norm :     0.0012033 Eh/α   predicted    -0.1894429E-04 ( -63.24%)
   displ. norm   :     0.2054254 α      lambda       -0.3679304E-04
   maximum displ.:     0.1654322 α      in ANC's #1, #3, #2, ...

........................................................................
.............................. CYCLE   35 ..............................
........................................................................
   1    -83.7692181 -0.837692E+02  0.190E-03    0.58       0.0  T
   2    -83.7692182 -0.131868E-06  0.759E-04    0.58      20.3  T
   3    -83.7692182 -0.730347E-08  0.365E-04    0.58      42.3  T
   4    -83.7692182 -0.835158E-09  0.119E-04    0.58     129.5  T
   5    -83.7692182 -0.134534E-09  0.339E-05    0.58     454.8  T
     SCC iter.                  ...        0 min,  0.026 sec
     gradient                   ...        0 min,  0.057 sec
 * total energy  :   -82.9819545 Eh     change       -0.5165102E-04 Eh
   gradient norm :     0.0008827 Eh/α   predicted    -0.1874191E-04 ( -63.71%)
   displ. norm   :     0.2242724 α      lambda       -0.3993651E-04
   maximum displ.:     0.1812161 α      in ANC's #1, #3, #4, ...

........................................................................
.............................. CYCLE   36 ..............................
........................................................................
   1    -83.7693656 -0.837694E+02  0.162E-03    0.58       0.0  T
   2    -83.7693656 -0.487717E-07  0.722E-04    0.58      21.4  T
   3    -83.7693657 -0.561131E-08  0.324E-04    0.58      47.6  T
   4    -83.7693657 -0.161755E-08  0.738E-05    0.58     209.0  T
   5    -83.7693657 -0.166693E-10  0.271E-05    0.58     569.0  T
     SCC iter.                  ...        0 min,  0.026 sec
     gradient                   ...        0 min,  0.057 sec
 * total energy  :   -82.9820106 Eh     change       -0.5613440E-04 Eh
   gradient norm :     0.0006585 Eh/α   predicted    -0.2041535E-04 ( -63.63%)
   displ. norm   :     0.2626917 α      lambda       -0.4449737E-04
   maximum displ.:     0.2123098 α      in ANC's #1, #3, #6, ...

........................................................................
.............................. CYCLE   37 ..............................
........................................................................
   1    -83.7692357 -0.837692E+02  0.237E-03    0.58       0.0  T
   2    -83.7692360 -0.245854E-06  0.102E-03    0.58      15.1  T
   3    -83.7692360 -0.209256E-07  0.478E-04    0.58      32.3  T
   4    -83.7692360 -0.228147E-08  0.157E-04    0.58      98.4  T
   5    -83.7692360 -0.172335E-09  0.447E-05    0.59     345.3  T
     SCC iter.                  ...        0 min,  0.026 sec
     gradient                   ...        0 min,  0.057 sec
 * total energy  :   -82.9820720 Eh     change       -0.6135611E-04 Eh
   gradient norm :     0.0011499 Eh/α   predicted    -0.2293140E-04 ( -62.63%)
   displ. norm   :     0.2916192 α      lambda       -0.4613100E-04
   maximum displ.:     0.2363741 α      in ANC's #1, #3, #4, ...

........................................................................
.............................. CYCLE   38 ..............................
........................................................................
   1    -83.7692152 -0.837692E+02  0.277E-03    0.59       0.0  T
   2    -83.7692155 -0.334828E-06  0.157E-03    0.59       9.8  T
   3    -83.7692156 -0.514840E-07  0.709E-04    0.59      21.8  T
   4    -83.7692156 -0.221340E-08  0.207E-04    0.59      74.4  T
   5    -83.7692156 -0.222798E-09  0.596E-05    0.59     258.8  T
   6    -83.7692156 -0.227516E-10  0.209E-05    0.59     739.9  T
     SCC iter.                  ...        0 min,  0.031 sec
     gradient                   ...        0 min,  0.057 sec
 * total energy  :   -82.9821329 Eh     change       -0.6092999E-04 Eh
   gradient norm :     0.0013800 Eh/α   predicted    -0.2393774E-04 ( -60.71%)
   displ. norm   :     0.3032131 α      lambda       -0.4378377E-04
   maximum displ.:     0.2471861 α      in ANC's #1, #4, #3, ...

........................................................................
.............................. CYCLE   39 ..............................
........................................................................
   1    -83.7689643 -0.837690E+02  0.319E-03    0.59       0.0  T
   2    -83.7689648 -0.533229E-06  0.149E-03    0.59      10.4  T
   3    -83.7689649 -0.531170E-07  0.687E-04    0.59      22.5  T
   4    -83.7689649 -0.294007E-08  0.255E-04    0.59      60.5  T
   5    -83.7689649 -0.371486E-09  0.658E-05    0.59     234.7  T
   6    -83.7689649 -0.227942E-10  0.218E-05    0.59     706.2  T
     SCC iter.                  ...        0 min,  0.031 sec
     gradient                   ...        0 min,  0.058 sec
 * total energy  :   -82.9821906 Eh     change       -0.5774704E-04 Eh
   gradient norm :     0.0015797 Eh/α   predicted    -0.2278908E-04 ( -60.54%)
   displ. norm   :     0.3001200 α      lambda       -0.4033497E-04
   maximum displ.:     0.2483122 α      in ANC's #1, #4, #6, ...

........................................................................
.............................. CYCLE   40 ..............................
........................................................................
   1    -83.7693968 -0.837694E+02  0.263E-03    0.60       0.0  T
   2    -83.7693969 -0.114252E-06  0.116E-03    0.60      13.3  T
   3    -83.7693969 -0.118678E-07  0.581E-04    0.60      26.6  T
   4    -83.7693969 -0.306872E-08  0.138E-04    0.60     112.2  T
   5    -83.7693969 -0.831619E-10  0.500E-05    0.60     308.4  T
     SCC iter.                  ...        0 min,  0.026 sec
     gradient                   ...        0 min,  0.058 sec
 * total energy  :   -82.9822455 Eh     change       -0.5486239E-04 Eh
   gradient norm :     0.0015329 Eh/α   predicted    -0.2097501E-04 ( -61.77%)
   displ. norm   :     0.3732716 α      lambda       -0.4893739E-04
   maximum displ.:     0.3092080 α      in ANC's #1, #4, #6, ...

........................................................................
.............................. CYCLE   41 ..............................
........................................................................
   1    -83.7685331 -0.837685E+02  0.353E-03    0.60       0.0  T
   2    -83.7685334 -0.237725E-06  0.171E-03    0.61       9.0  T
   3    -83.7685334 -0.263201E-07  0.807E-04    0.61      19.1  T
   4    -83.7685334 -0.616492E-08  0.210E-04    0.61      73.6  T
   5    -83.7685334 -0.358241E-09  0.721E-05    0.61     213.9  T
   6    -83.7685334 -0.403162E-10  0.222E-05    0.61     695.3  T
     SCC iter.                  ...        0 min,  0.031 sec
     gradient                   ...        0 min,  0.057 sec
 * total energy  :   -82.9823116 Eh     change       -0.6606073E-04 Eh
   gradient norm :     0.0022095 Eh/α   predicted    -0.2598614E-04 ( -60.66%)
   displ. norm   :     0.3010777 α      lambda       -0.6072526E-04
   maximum displ.:     0.2539599 α      in ANC's #1, #4, #6, ...

........................................................................
.............................. CYCLE   42 ..............................
........................................................................
   1    -83.7684764 -0.837685E+02  0.255E-03    0.61       0.0  T
   2    -83.7684765 -0.142151E-06  0.106E-03    0.61      14.6  T
   3    -83.7684765 -0.127958E-07  0.497E-04    0.61      31.1  T
   4    -83.7684765 -0.236581E-08  0.124E-04    0.61     124.9  T
   5    -83.7684765 -0.114497E-09  0.457E-05    0.61     337.3  T
     SCC iter.                  ...        0 min,  0.027 sec
     gradient                   ...        0 min,  0.060 sec
 * total energy  :   -82.9823715 Eh     change       -0.5989265E-04 Eh
   gradient norm :     0.0022871 Eh/α   predicted    -0.3312031E-04 ( -44.70%)
   displ. norm   :     0.5751477 α      lambda       -0.1248006E-03
   maximum displ.:     0.4897457 α      in ANC's #1, #4, #6, ...
 * RMSD in coord.:     0.7760449 α      energy gain  -0.1327864E-02 Eh

generating ANC from model Hessian ...
Using Lindh-Hessian (1995)
 Shifting diagonal of input Hessian by   9.748709135617517E-003
 Lowest  eigenvalues of input Hessian
    0.000000    0.000000    0.000000    0.000000    0.000000    0.000000
    0.010000    0.010144    0.010348    0.010657    0.011834    0.012539
    0.012763    0.014117    0.015874    0.016207    0.017299    0.017949
 Highest eigenvalues
    2.209135    2.229192    2.240527    2.308732    2.367157    2.454881
 

........................................................................
.............................. CYCLE   43 ..............................
........................................................................
   1    -83.7675169 -0.837675E+02  0.487E-03    0.62       0.0  T
   2    -83.7675173 -0.453094E-06  0.212E-03    0.62       7.3  T
   3    -83.7675174 -0.438220E-07  0.101E-03    0.62      15.3  T
   4    -83.7675174 -0.107128E-07  0.253E-04    0.62      61.1  T
   5    -83.7675174 -0.444587E-09  0.912E-05    0.62     169.3  T
   6    -83.7675174 -0.553939E-10  0.326E-05    0.62     472.7  T
     SCC iter.                  ...        0 min,  0.030 sec
     gradient                   ...        0 min,  0.055 sec
 * total energy  :   -82.9824809 Eh     change       -0.1094465E-03 Eh
   gradient norm :     0.0032833 Eh/α   predicted     0.0000000E+00 (-100.00%)
   displ. norm   :     0.0298797 α      lambda       -0.2703355E-04
   maximum displ.:     0.0169526 α      in ANC's #1, #2, #3, ...

........................................................................
.............................. CYCLE   44 ..............................
........................................................................
   1    -83.7693089 -0.837693E+02  0.294E-03    0.62       0.0  T
   2    -83.7693091 -0.270353E-06  0.148E-03    0.62      10.5  T
   3    -83.7693091 -0.205649E-07  0.811E-04    0.62      19.0  T
   4    -83.7693091 -0.121598E-08  0.186E-04    0.62      83.0  T
   5    -83.7693091 -0.399851E-09  0.347E-05    0.62     444.3  T
     SCC iter.                  ...        0 min,  0.025 sec
     gradient                   ...        0 min,  0.055 sec
 * total energy  :   -82.9825014 Eh     change       -0.2049712E-04 Eh
   gradient norm :     0.0008564 Eh/α   predicted    -0.1385369E-04 ( -32.41%)
   displ. norm   :     0.0947441 α      lambda       -0.2518635E-04
   maximum displ.:     0.0541527 α      in ANC's #1, #2, #3, ...

........................................................................
.............................. CYCLE   45 ..............................
........................................................................
   1    -83.7715330 -0.837715E+02  0.364E-03    0.62       0.0  T
   2    -83.7715334 -0.376258E-06  0.177E-03    0.62       8.7  T
   3    -83.7715334 -0.237801E-07  0.971E-04    0.62      15.9  T
   4    -83.7715334 -0.235072E-08  0.242E-04    0.62      63.9  T
   5    -83.7715334 -0.618272E-09  0.456E-05    0.62     338.2  T
   6    -83.7715334 -0.648868E-10  0.139E-05    0.62    1111.4  T
     SCC iter.                  ...        0 min,  0.030 sec
     gradient                   ...        0 min,  0.055 sec
 * total energy  :   -82.9825262 Eh     change       -0.2479793E-04 Eh
   gradient norm :     0.0026020 Eh/α   predicted    -0.1264428E-04 ( -49.01%)
   displ. norm   :     0.0772154 α      lambda       -0.2288818E-04
   maximum displ.:     0.0445260 α      in ANC's #1, #2, #3, ...

........................................................................
.............................. CYCLE   46 ..............................
........................................................................
   1    -83.7715801 -0.837716E+02  0.537E-04    0.62       0.0  T
   2    -83.7715801 -0.949038E-08  0.229E-04    0.62      67.3  T
   3    -83.7715801 -0.637925E-09  0.109E-04    0.62     141.8  T
   4    -83.7715801 -0.819114E-10  0.370E-05    0.62     416.5  T
     SCC iter.                  ...        0 min,  0.020 sec
     gradient                   ...        0 min,  0.054 sec
 * total energy  :   -82.9825478 Eh     change       -0.2164383E-04 Eh
   gradient norm :     0.0026413 Eh/α   predicted    -0.1151320E-04 ( -46.81%)
   displ. norm   :     0.2216582 α      lambda       -0.6722730E-04
   maximum displ.:     0.1261168 α      in ANC's #1, #2, #3, ...

........................................................................
.............................. CYCLE   47 ..............................
........................................................................
   1    -83.7705664 -0.837706E+02  0.217E-03    0.62       0.0  T
   2    -83.7705665 -0.101807E-06  0.111E-03    0.62      13.9  T
   3    -83.7705665 -0.863187E-08  0.571E-04    0.62      27.0  T
   4    -83.7705665 -0.134233E-08  0.123E-04    0.62     125.3  T
   5    -83.7705665 -0.156106E-09  0.349E-05    0.62     441.8  T
     SCC iter.                  ...        0 min,  0.025 sec
     gradient                   ...        0 min,  0.055 sec
 * total energy  :   -82.9826062 Eh     change       -0.5833571E-04 Eh
   gradient norm :     0.0016123 Eh/α   predicted    -0.3526670E-04 ( -39.55%)
   displ. norm   :     0.5218951 α      lambda       -0.8378576E-04
   maximum displ.:     0.2999095 α      in ANC's #1, #3, #2, ...

........................................................................
.............................. CYCLE   48 ..............................
........................................................................
   1    -83.7672598 -0.837673E+02  0.716E-03    0.62       0.0  T
   2    -83.7672606 -0.827126E-06  0.340E-03    0.62       4.5  T
   3    -83.7672607 -0.634207E-07  0.182E-03    0.62       8.5  T
   4    -83.7672607 -0.125360E-07  0.381E-04    0.63      40.5  T
   5    -83.7672607 -0.160409E-08  0.903E-05    0.63     171.0  T
   6    -83.7672607 -0.150877E-09  0.284E-05    0.63     544.2  T
     SCC iter.                  ...        0 min,  0.029 sec
     gradient                   ...        0 min,  0.055 sec
 * total energy  :   -82.9826872 Eh     change       -0.8106045E-04 Eh
   gradient norm :     0.0037067 Eh/α   predicted    -0.4696755E-04 ( -42.06%)
   displ. norm   :     0.1619623 α      lambda       -0.4279787E-04
   maximum displ.:     0.0929891 α      in ANC's #1, #2, #3, ...

........................................................................
.............................. CYCLE   49 ..............................
........................................................................
   1    -83.7672296 -0.837672E+02  0.153E-03    0.63       0.0  T
   2    -83.7672297 -0.726460E-07  0.648E-04    0.63      23.8  T
   3    -83.7672297 -0.896760E-08  0.323E-04    0.63      47.8  T
   4    -83.7672297 -0.664926E-09  0.840E-05    0.63     183.6  T
   5    -83.7672297 -0.205347E-10  0.224E-05    0.63     688.6  T
     SCC iter.                  ...        0 min,  0.025 sec
     gradient                   ...        0 min,  0.054 sec
 * total energy  :   -82.9827282 Eh     change       -0.4095145E-04 Eh
   gradient norm :     0.0035332 Eh/α   predicted    -0.2197445E-04 ( -46.34%)
   displ. norm   :     0.4304197 α      lambda       -0.1661116E-03
   maximum displ.:     0.2435675 α      in ANC's #1, #2, #3, ...

........................................................................
.............................. CYCLE   50 ..............................
........................................................................
   1    -83.7684696 -0.837685E+02  0.581E-03    0.63       0.0  T
   2    -83.7684707 -0.114218E-05  0.245E-03    0.63       6.3  T
   3    -83.7684709 -0.144932E-06  0.120E-03    0.64      12.8  T
   4    -83.7684709 -0.692829E-08  0.337E-04    0.64      45.8  T
   5    -83.7684709 -0.257828E-09  0.785E-05    0.64     196.7  T
   6    -83.7684709 -0.108528E-09  0.266E-05    0.64     579.3  T
     SCC iter.                  ...        0 min,  0.029 sec
     gradient                   ...        0 min,  0.053 sec
 * total energy  :   -82.9828739 Eh     change       -0.1457542E-03 Eh
   gradient norm :     0.0023562 Eh/α   predicted    -0.9845308E-04 ( -32.45%)
   displ. norm   :     0.6960939 α      lambda       -0.2287815E-03
   maximum displ.:     0.3895057 α      in ANC's #1, #2, #3, ...

........................................................................
.............................. CYCLE   51 ..............................
........................................................................
   1    -83.7679723 -0.837680E+02  0.803E-03    0.63       0.0  T
   2    -83.7679739 -0.160264E-05  0.363E-03    0.64       4.3  T
   3    -83.7679741 -0.187312E-06  0.195E-03    0.64       7.9  T
   4    -83.7679741 -0.182997E-07  0.480E-04    0.64      32.1  T
   5    -83.7679741 -0.135888E-08  0.120E-04    0.64     128.7  T
   6    -83.7679741 -0.282455E-09  0.371E-05    0.64     415.6  T
     SCC iter.                  ...        0 min,  0.029 sec
     gradient                   ...        0 min,  0.054 sec
 * total energy  :   -82.9830573 Eh     change       -0.1833989E-03 Eh
   gradient norm :     0.0045320 Eh/α   predicted    -0.1698246E-03 (  -7.40%)
   displ. norm   :     0.4879318 α      lambda       -0.1617920E-03
   maximum displ.:     0.2831642 α      in ANC's #2, #1, #3, ...

........................................................................
.............................. CYCLE   52 ..............................
........................................................................
   1    -83.7684640 -0.837685E+02  0.546E-03    0.65       0.0  T
   2    -83.7684648 -0.858130E-06  0.229E-03    0.65       6.7  T
   3    -83.7684649 -0.904148E-07  0.120E-03    0.65      12.8  T
   4    -83.7684649 -0.940042E-08  0.378E-04    0.65      40.8  T
   5    -83.7684649 -0.503206E-09  0.950E-05    0.65     162.5  T
   6    -83.7684649 -0.173898E-09  0.332E-05    0.65     464.5  T
     SCC iter.                  ...        0 min,  0.030 sec
     gradient                   ...        0 min,  0.041 sec
 * total energy  :   -82.9831800 Eh     change       -0.1226537E-03 Eh
   gradient norm :     0.0045350 Eh/α   predicted    -0.1001610E-03 ( -18.34%)
   displ. norm   :     0.2997724 α      lambda       -0.1305288E-03
   maximum displ.:     0.1950035 α      in ANC's #2, #1, #3, ...

........................................................................
.............................. CYCLE   53 ..............................
........................................................................
   1    -83.7702190 -0.837702E+02  0.731E-03    0.67       0.0  T
   2    -83.7702199 -0.838637E-06  0.282E-03    0.67       5.5  T
   3    -83.7702199 -0.569731E-07  0.159E-03    0.67       9.7  T
   4    -83.7702199 -0.120495E-07  0.457E-04    0.67      33.8  T
   5    -83.7702199 -0.187299E-08  0.842E-05    0.67     183.3  T
   6    -83.7702199 -0.124885E-09  0.278E-05    0.67     554.6  T
     SCC iter.                  ...        0 min,  0.019 sec
     gradient                   ...        0 min,  0.036 sec
 * total energy  :   -82.9832768 Eh     change       -0.9684258E-04 Eh
   gradient norm :     0.0030636 Eh/α   predicted    -0.7112985E-04 ( -26.55%)
   displ. norm   :     0.3869067 α      lambda       -0.1234708E-03
   maximum displ.:     0.2503174 α      in ANC's #2, #1, #3, ...

........................................................................
.............................. CYCLE   54 ..............................
........................................................................
   1    -83.7689946 -0.837690E+02  0.516E-03    0.67       0.0  T
   2    -83.7689950 -0.363608E-06  0.254E-03    0.68       6.1  T
   3    -83.7689950 -0.363184E-07  0.145E-03    0.68      10.6  T
   4    -83.7689950 -0.961197E-08  0.205E-04    0.68      75.3  T
   5    -83.7689950 -0.704730E-09  0.781E-05    0.68     197.5  T
   6    -83.7689950 -0.120707E-09  0.194E-05    0.68     795.0  T
     SCC iter.                  ...        0 min,  0.035 sec
     gradient                   ...        0 min,  0.063 sec
 * total energy  :   -82.9833872 Eh     change       -0.1104026E-03 Eh
   gradient norm :     0.0025542 Eh/α   predicted    -0.7097758E-04 ( -35.71%)
   displ. norm   :     0.3130678 α      lambda       -0.1336118E-03
   maximum displ.:     0.2233174 α      in ANC's #2, #1, #3, ...

........................................................................
.............................. CYCLE   55 ..............................
........................................................................
   1    -83.7688806 -0.837689E+02  0.416E-03    0.69       0.0  T
   2    -83.7688810 -0.415278E-06  0.202E-03    0.69       7.6  T
   3    -83.7688811 -0.529235E-07  0.106E-03    0.69      14.6  T
   4    -83.7688811 -0.457881E-08  0.252E-04    0.69      61.1  T
   5    -83.7688811 -0.482231E-09  0.758E-05    0.69     203.6  T
   6    -83.7688811 -0.102759E-09  0.198E-05    0.69     779.4  T
     SCC iter.                  ...        0 min,  0.035 sec
     gradient                   ...        0 min,  0.064 sec
 * total energy  :   -82.9835012 Eh     change       -0.1139461E-03 Eh
   gradient norm :     0.0026330 Eh/α   predicted    -0.7336145E-04 ( -35.62%)
   displ. norm   :     0.2793821 α      lambda       -0.1125900E-03
   maximum displ.:     0.2079927 α      in ANC's #2, #3, #1, ...

........................................................................
.............................. CYCLE   56 ..............................
........................................................................
   1    -83.7686536 -0.837687E+02  0.348E-03    0.70       0.0  T
   2    -83.7686538 -0.233891E-06  0.182E-03    0.70       8.5  T
   3    -83.7686539 -0.339138E-07  0.966E-04    0.70      16.0  T
   4    -83.7686539 -0.666810E-08  0.199E-04    0.70      77.4  T
   5    -83.7686539 -0.262006E-09  0.646E-05    0.70     239.0  T
     SCC iter.                  ...        0 min,  0.029 sec
     gradient                   ...        0 min,  0.064 sec
 * total energy  :   -82.9835964 Eh     change       -0.9515993E-04 Eh
   gradient norm :     0.0032676 Eh/α   predicted    -0.6069383E-04 ( -36.22%)
   displ. norm   :     0.2083431 α      lambda       -0.8368560E-04
   maximum displ.:     0.1623974 α      in ANC's #2, #3, #1, ...

........................................................................
.............................. CYCLE   57 ..............................
........................................................................
   1    -83.7688826 -0.837689E+02  0.281E-03    0.70       0.0  T
   2    -83.7688827 -0.126707E-06  0.131E-03    0.71      11.8  T
   3    -83.7688827 -0.148578E-07  0.693E-04    0.71      22.3  T
   4    -83.7688827 -0.495534E-08  0.166E-04    0.71      92.7  T
   5    -83.7688827 -0.207677E-09  0.501E-05    0.71     308.2  T
     SCC iter.                  ...        0 min,  0.030 sec
     gradient                   ...        0 min,  0.064 sec
 * total energy  :   -82.9836695 Eh     change       -0.7316677E-04 Eh
   gradient norm :     0.0031206 Eh/α   predicted    -0.4366192E-04 ( -40.33%)
   displ. norm   :     0.1865564 α      lambda       -0.8170225E-04
   maximum displ.:     0.1490214 α      in ANC's #2, #4, #3, ...

........................................................................
.............................. CYCLE   58 ..............................
........................................................................
   1    -83.7693043 -0.837693E+02  0.306E-03    0.71       0.0  T
   2    -83.7693045 -0.219713E-06  0.138E-03    0.71      11.1  T
   3    -83.7693046 -0.287395E-07  0.728E-04    0.71      21.2  T
   4    -83.7693046 -0.354568E-08  0.180E-04    0.71      85.8  T
   5    -83.7693046 -0.119655E-09  0.518E-05    0.71     297.6  T
     SCC iter.                  ...        0 min,  0.029 sec
     gradient                   ...        0 min,  0.063 sec
 * total energy  :   -82.9837426 Eh     change       -0.7307102E-04 Eh
   gradient norm :     0.0024872 Eh/α   predicted    -0.4227559E-04 ( -42.14%)
   displ. norm   :     0.2098323 α      lambda       -0.9214829E-04
   maximum displ.:     0.1677578 α      in ANC's #2, #4, #3, ...

........................................................................
.............................. CYCLE   59 ..............................
........................................................................
   1    -83.7696628 -0.837697E+02  0.380E-03    0.72       0.0  T
   2    -83.7696632 -0.425439E-06  0.174E-03    0.72       8.9  T
   3    -83.7696633 -0.531461E-07  0.872E-04    0.72      17.7  T
   4    -83.7696633 -0.522357E-08  0.259E-04    0.72      59.6  T
   5    -83.7696633 -0.170544E-09  0.665E-05    0.72     232.1  T
   6    -83.7696633 -0.521538E-10  0.247E-05    0.72     623.9  T
     SCC iter.                  ...        0 min,  0.035 sec
     gradient                   ...        0 min,  0.064 sec
 * total energy  :   -82.9838231 Eh     change       -0.8049184E-04 Eh
   gradient norm :     0.0017086 Eh/α   predicted    -0.4810410E-04 ( -40.24%)
   displ. norm   :     0.3374795 α      lambda       -0.8608685E-04
   maximum displ.:     0.2686562 α      in ANC's #2, #4, #3, ...

........................................................................
.............................. CYCLE   60 ..............................
........................................................................
   1    -83.7698763 -0.837699E+02  0.657E-03    0.73       0.0  T
   2    -83.7698776 -0.134124E-05  0.295E-03    0.73       5.2  T
   3    -83.7698778 -0.168584E-06  0.138E-03    0.73      11.2  T
   4    -83.7698778 -0.151964E-07  0.431E-04    0.73      35.8  T
   5    -83.7698778 -0.556838E-09  0.124E-04    0.73     124.8  T
   6    -83.7698778 -0.125709E-09  0.443E-05    0.73     348.5  T
     SCC iter.                  ...        0 min,  0.035 sec
     gradient                   ...        0 min,  0.063 sec
 * total energy  :   -82.9839215 Eh     change       -0.9844517E-04 Eh
   gradient norm :     0.0019833 Eh/α   predicted    -0.4522319E-04 ( -54.06%)
   displ. norm   :     0.2132767 α      lambda       -0.4140264E-04
   maximum displ.:     0.1703191 α      in ANC's #2, #4, #12, ...

........................................................................
.............................. CYCLE   61 ..............................
........................................................................
   1    -83.7701639 -0.837702E+02  0.435E-03    0.74       0.0  T
   2    -83.7701643 -0.384425E-06  0.176E-03    0.74       8.8  T
   3    -83.7701643 -0.285934E-07  0.933E-04    0.75      16.5  T
   4    -83.7701643 -0.691716E-08  0.283E-04    0.75      54.6  T
   5    -83.7701643 -0.377440E-09  0.807E-05    0.75     191.3  T
   6    -83.7701643 -0.665352E-10  0.287E-05    0.75     537.5  T
     SCC iter.                  ...        0 min,  0.035 sec
     gradient                   ...        0 min,  0.064 sec
 * total energy  :   -82.9839725 Eh     change       -0.5093102E-04 Eh
   gradient norm :     0.0022502 Eh/α   predicted    -0.2112014E-04 ( -58.53%)
   displ. norm   :     0.1258926 α      lambda       -0.3921344E-04
   maximum displ.:     0.0972328 α      in ANC's #2, #4, #17, ...

........................................................................
.............................. CYCLE   62 ..............................
........................................................................
   1    -83.7702279 -0.837702E+02  0.304E-03    0.75       0.0  T
   2    -83.7702281 -0.168783E-06  0.128E-03    0.75      12.1  T
   3    -83.7702281 -0.187828E-07  0.686E-04    0.75      22.5  T
   4    -83.7702281 -0.272028E-08  0.157E-04    0.75      98.3  T
   5    -83.7702281 -0.177522E-09  0.555E-05    0.75     277.9  T
     SCC iter.                  ...        0 min,  0.029 sec
     gradient                   ...        0 min,  0.062 sec
 * total energy  :   -82.9840056 Eh     change       -0.3311403E-04 Eh
   gradient norm :     0.0014748 Eh/α   predicted    -0.1991883E-04 ( -39.85%)
   displ. norm   :     0.2553687 α      lambda       -0.4871255E-04
   maximum displ.:     0.1888473 α      in ANC's #2, #4, #7, ...

........................................................................
.............................. CYCLE   63 ..............................
........................................................................
   1    -83.7699942 -0.837700E+02  0.438E-03    0.76       0.0  T
   2    -83.7699945 -0.354164E-06  0.188E-03    0.76       8.2  T
   3    -83.7699945 -0.309761E-07  0.913E-04    0.76      16.9  T
   4    -83.7699946 -0.704378E-08  0.246E-04    0.76      62.8  T
   5    -83.7699946 -0.527194E-09  0.942E-05    0.76     163.8  T
   6    -83.7699946 -0.775060E-10  0.265E-05    0.76     582.3  T
     SCC iter.                  ...        0 min,  0.033 sec
     gradient                   ...        0 min,  0.062 sec
 * total energy  :   -82.9840588 Eh     change       -0.5322914E-04 Eh
   gradient norm :     0.0014970 Eh/α   predicted    -0.2506420E-04 ( -52.91%)
   displ. norm   :     0.1754152 α      lambda       -0.2239640E-04
   maximum displ.:     0.1263444 α      in ANC's #2, #4, #8, ...

........................................................................
.............................. CYCLE   64 ..............................
........................................................................
   1    -83.7694306 -0.837694E+02  0.282E-03    0.77       0.0  T
   2    -83.7694307 -0.135548E-06  0.131E-03    0.77      11.7  T
   3    -83.7694307 -0.105789E-07  0.609E-04    0.77      25.3  T
   4    -83.7694307 -0.229709E-08  0.159E-04    0.77      96.8  T
   5    -83.7694307 -0.273090E-09  0.597E-05    0.77     258.7  T
     SCC iter.                  ...        0 min,  0.030 sec
     gradient                   ...        0 min,  0.064 sec
 * total energy  :   -82.9840817 Eh     change       -0.2290074E-04 Eh
   gradient norm :     0.0013589 Eh/α   predicted    -0.1135303E-04 ( -50.43%)
   displ. norm   :     0.1207699 α      lambda       -0.1179117E-04
   maximum displ.:     0.0708905 α      in ANC's #2, #1, #4, ...

........................................................................
.............................. CYCLE   65 ..............................
........................................................................
[...]
N11-C8-C7=102.68               N11-C8-C9=109.66               N11-C8-C10=109.81              H29-C9-C8=110.05               
H30-C9-C8=109.74               H30-C9-H29=109.17              H31-C9-C8=109.77               H31-C9-H29=109.14              
H31-C9-H30=108.95              H32-C10-C8=109.91              H33-C10-C8=109.68              H33-C10-H32=108.99             
H34-C10-C8=109.99              H34-C10-H32=109.13             H34-C10-H33=109.12             
 
 selected dihedral angles (degree)
 ---------------------------------
C3-O2-C1-H26=180.18           C3-O2-C1-H27=299.97           C3-O2-C1-H28= 60.43           O4-C3-O2-C1=  0.32            
C5-C3-O2-C1=180.44            N6-C5-C3-O2=179.54            N6-C5-C3-O4=359.66            C24-C5-C3-O2=359.78           
C24-C5-C3-O4=179.90           C7-N6-C5-C3=180.03            C7-N6-C5-C24=359.80           C8-C7-N6-C5=179.43            
N21-C7-N6-C5=  0.04           C9-C8-C7-N6=118.58            C9-C8-C7-N21=297.98           C10-C8-C7-N6=243.69           
C10-C8-C7-N21= 63.09          N11-C8-C7-N6=  1.11           N11-C8-C7-N21=180.51          H29-C9-C8-C7=303.71           
H29-C9-C8-C10=178.60          H29-C9-C8-N11= 56.90          H30-C9-C8-C7= 63.87           H30-C9-C8-C10=298.76          
H30-C9-C8-N11=177.06          H31-C9-C8-C7=183.57           H31-C9-C8-C10= 58.47          H31-C9-C8-N11=296.76          
H32-C10-C8-C7=176.87          H32-C10-C8-C9=302.25          H32-C10-C8-N11= 63.87         H33-C10-C8-C7=296.68          
H33-C10-C8-C9= 62.05          H33-C10-C8-N11=183.67         H34-C10-C8-C7= 56.70          H34-C10-C8-C9=182.07          
H34-C10-C8-N11=303.69         
           -------------------------------------------------
          |                Final Singlepoint                |
           -------------------------------------------------

          ...................................................
          :                      SETUP                      :
          :.................................................:
          :  # basis functions                 134          :
          :  # atomic orbitals                 134          :
          :  # shells                           84          :
          :  # electrons                       134          :
          :  # halogen bonds                     0          :
          :  max. iterations                   250          :
          :  Hamiltonian                  GFN1-xTB          :
          :  restarted?                      false          :
          :  GBSA solvation                   true          :
          :  PC potential                    false          :
          :  electronic temp.          300.0000000     K    :
          :  accuracy                    1.0000000          :
          :  -> integral cutoff          0.2500000E+02      :
          :  -> integral neglect         0.1000000E-07      :
          :  -> SCF convergence          0.1000000E-05 Eh   :
          :  -> wf. convergence          0.2000000E-04 e    :
          :  Broyden damping             0.4000000          :
          ...................................................

 iter      E             dE          RMSdq      gap      omega  full diag
   1    -83.7698024 -0.837698E+02  0.438E-06    0.77       0.0  T
   2    -83.7698024 -0.369482E-12  0.215E-06    0.77    7175.0  T
   3    -83.7698024  0.156319E-12  0.705E-07    0.77   21887.7  T

   *** convergence criteria satisfied after 3 iterations ***

         #    Occupation            Energy/Eh            Energy/eV
      -------------------------------------------------------------
         1        2.0000           -0.9288398             -25.2750
       ...           ...                  ...                  ...
        61        2.0000           -0.4633086             -12.6073
        62        2.0000           -0.4591796             -12.4949
        63        2.0000           -0.4496423             -12.2354
        64        2.0000           -0.4464482             -12.1485
        65        2.0000           -0.4276981             -11.6383
        66        2.0000           -0.3874426             -10.5429
        67        2.0000           -0.3740274             -10.1778 (HOMO)
        68        0.0000           -0.3456524              -9.4057 (LUMO)
        69                         -0.3350865              -9.1182
        70                         -0.2781102              -7.5678
        71                         -0.2493447              -6.7850
        72                         -0.2277403              -6.1971
       ...                                ...                  ...
       134                          0.7552745              20.5521
      -------------------------------------------------------------
                  HL-Gap            0.0283751 Eh            0.7721 eV
             Fermi-level           -0.3598399 Eh           -9.7917 eV

 SCC (total)                   0 d,  0 h,  0 min,  0.109 sec
 SCC setup                      ...        0 min,  0.002 sec (  1.518%)
 Dispersion                     ...        0 min,  0.000 sec (  0.236%)
 classical contributions        ...        0 min,  0.000 sec (  0.081%)
 integral evaluation            ...        0 min,  0.027 sec ( 24.497%)
 iterations                     ...        0 min,  0.017 sec ( 15.788%)
 molecular gradient             ...        0 min,  0.062 sec ( 56.750%)
 printout                       ...        0 min,  0.001 sec (  1.104%)

         :::::::::::::::::::::::::::::::::::::::::::::::::::::
         ::                     SUMMARY                     ::
         :::::::::::::::::::::::::::::::::::::::::::::::::::::
         :: total energy             -82.984102239819 Eh    ::
         :: total w/o Gsasa/hb       -82.963639824371 Eh    ::
         :: gradient norm              0.000554569152 Eh/a0 ::
         :: HOMO-LUMO gap              0.772124951310 eV    ::
         ::.................................................::
         :: SCC energy               -83.769802429444 Eh    ::
         :: -> electrostatic           0.454425908570 Eh    ::
         :: -> Gsolv                  -0.097045393700 Eh    ::
         ::    -> Gelec               -0.076582978251 Eh    ::
         ::    -> Gsasa               -0.023949986387 Eh    ::
         ::    -> Ghb                 -0.004136708066 Eh    ::
         ::    -> Gshift               0.007624279005 Eh    ::
         :: repulsion energy           0.811932142848 Eh    ::
         :: dispersion energy         -0.026231953224 Eh    ::
         :: halogen bond corr.         0.000000000000 Eh    ::
         :: add. restraining           0.000000000000 Eh    ::
         :: total charge              -0.000000000009 e     ::
         :::::::::::::::::::::::::::::::::::::::::::::::::::::

           -------------------------------------------------
          |                Property Printout                |
           -------------------------------------------------

    * Orbital Energies and Occupations

         #    Occupation            Energy/Eh            Energy/eV
      -------------------------------------------------------------
         1        2.0000           -0.9288398             -25.2750
       ...           ...                  ...                  ...
        55        2.0000           -0.5080319             -13.8243
        56        2.0000           -0.4991561             -13.5827
        57        2.0000           -0.4949786             -13.4691
        58        2.0000           -0.4924498             -13.4002
        59        2.0000           -0.4783652             -13.0170
        60        2.0000           -0.4713475             -12.8260
        61        2.0000           -0.4633086             -12.6073
        62        2.0000           -0.4591796             -12.4949
        63        2.0000           -0.4496423             -12.2354
        64        2.0000           -0.4464482             -12.1485
        65        2.0000           -0.4276981             -11.6383
        66        2.0000           -0.3874426             -10.5429
        67        2.0000           -0.3740274             -10.1778 (HOMO)
        68        0.0000           -0.3456524              -9.4057 (LUMO)
        69                         -0.3350865              -9.1182
        70                         -0.2781102              -7.5678
        71                         -0.2493447              -6.7850
        72                         -0.2277403              -6.1971
        73                         -0.2057125              -5.5977
        74                         -0.1790485              -4.8722
        75                         -0.1633198              -4.4442
        76                         -0.1339976              -3.6463
        77                         -0.1247540              -3.3947
        78                         -0.1245433              -3.3890
       ...                                ...                  ...
       134                          0.7552745              20.5521
      -------------------------------------------------------------
                  HL-Gap            0.0283751 Eh            0.7721 eV
             Fermi-level           -0.3598399 Eh           -9.7917 eV

  Mulliken/CM5 charges         n(s)   n(p)   n(d)
     1C     0.16909  0.04927   0.973  2.858  0.000
     2O    -0.42511 -0.50814   1.686  4.739  0.000
     3C     0.55020  0.61499   0.974  2.476  0.000
     4O    -0.62557 -0.67513   1.732  4.893  0.000
     5C    -0.01428  0.06195   1.037  2.978  0.000
     6N    -0.38442 -0.58791   1.522  3.862  0.000
     7C     0.23777  0.38952   1.001  2.761  0.000
     8C     0.14909  0.18876   1.068  2.783  0.000
     9C    -0.10728 -0.24707   1.020  3.088  0.000
    10C    -0.10708 -0.24683   1.020  3.087  0.000
    11N    -0.32188 -0.67052   1.438  3.884  0.000
    12C     0.47894  0.59245   0.960  2.561  0.000
    13O    -0.56846 -0.60984   1.723  4.845  0.000
    14C     0.35919  0.48600   1.033  2.608  0.000
    15N    -0.19869 -0.31179   1.554  3.645  0.000
    16N     0.01003 -0.19164   1.429  3.561  0.000
    17C     0.02796 -0.05368   1.000  2.972  0.000
    18C     0.40969  0.51312   1.014  2.576  0.000
    19C    -0.10601 -0.24376   1.019  3.087  0.000
    20O    -0.29347 -0.35543   1.675  4.618  0.000
    21N    -0.31443 -0.65884   1.434  3.881  0.000
    22C     0.43028  0.53301   1.013  2.556  0.000
    23O    -0.59801 -0.63573   1.734  4.864  0.000
    24C     0.29386  0.33946   1.032  2.674  0.000
    25O    -0.62367 -0.66187   1.742  4.882  0.000
    26H     0.03987  0.10005   0.960  0.000  0.000
    27H     0.03689  0.09880   0.963  0.000  0.000
    28H     0.03680  0.09864   0.963  0.000  0.000
    29H     0.04778  0.10437   0.952  0.000  0.000
    30H     0.04896  0.10447   0.951  0.000  0.000
    31H     0.05787  0.11586   0.942  0.000  0.000
    32H     0.05828  0.11662   0.942  0.000  0.000
    33H     0.04872  0.10428   0.951  0.000  0.000
    34H     0.04756  0.10433   0.952  0.000  0.000
    35H     0.26748  0.49504   0.733  0.000  0.000
    36H     0.10308  0.16844   0.897  0.000  0.000
    37H     0.10284  0.16669   0.897  0.000  0.000
    38H     0.08831  0.15243   0.912  0.000  0.000
    39H     0.10519  0.15971   0.895  0.000  0.000
    40H     0.10523  0.15977   0.895  0.000  0.000
    41H     0.11691  0.17864   0.883  0.000  0.000
    42H     0.26049  0.46154   0.740  0.000  0.000

Wiberg/Mayer (AO) data.
largest (>0.10) Wiberg bond orders for each atom

 ---------------------------------------------------------------------------
     #   Z sym  total        # sym  WBO       # sym  WBO       # sym  WBO
 ---------------------------------------------------------------------------
     1   6 C    3.894 --    26 H    0.987    28 H    0.981    27 H    0.980
                             2 O    0.920
     2   8 O    2.171 --     3 C    1.064     1 C    0.920     4 O    0.109
     3   6 C    3.850 --     4 O    1.553     5 C    1.117     2 O    1.064
     4   8 O    1.862 --     3 C    1.553     2 O    0.109
     5   6 C    3.910 --    24 C    1.266     6 N    1.146     3 C    1.117
                            25 O    0.128
     6   7 N    3.092 --     7 C    1.620     5 C    1.146
     7   6 C    3.935 --     6 N    1.620    21 N    1.110     8 C    0.973
     8   6 C    3.926 --     9 C    0.983    10 C    0.983     7 C    0.973
                            11 N    0.920
     9   6 C    3.988 --    29 H    0.985    30 H    0.984     8 C    0.983
                            31 H    0.982
    10   6 C    3.988 --    34 H    0.985    33 H    0.984     8 C    0.983
                            32 H    0.982
    11   7 N    3.411 --    12 C    1.334     8 C    0.920    35 H    0.831
                            13 O    0.208
    12   6 C    3.930 --    13 O    1.581    11 N    1.334    14 C    0.942
    13   8 O    1.909 --    12 C    1.581    11 N    0.208
    14   6 C    3.832 --    15 N    1.620    20 O    1.055    12 C    0.942
    15   7 N    2.975 --    14 C    1.620    16 N    1.140
    16   7 N    3.625 --    18 C    1.423    15 N    1.140    17 C    0.915
    17   6 C    3.892 --    38 H    0.981    36 H    0.971    37 H    0.966
                            16 N    0.915
    18   6 C    3.837 --    16 N    1.423    20 O    1.151    19 C    1.038
    19   6 C    3.957 --    18 C    1.038    41 H    0.962    40 H    0.948
                            39 H    0.947
    20   8 O    2.386 --    18 C    1.151    14 C    1.055
    21   7 N    3.425 --    22 C    1.146     7 C    1.110    42 H    0.895
                            23 O    0.133
    22   6 C    3.875 --    23 O    1.595    21 N    1.146    24 C    0.961
    23   8 O    1.874 --    22 C    1.595    21 N    0.133
    24   6 C    3.942 --    25 O    1.533     5 C    1.266    22 C    0.961
    25   8 O    1.838 --    24 C    1.533     5 C    0.128
    26   1 H    1.014 --     1 C    0.987
    27   1 H    1.013 --     1 C    0.980
    28   1 H    1.012 --     1 C    0.981
    29   1 H    1.002 --     9 C    0.985
    30   1 H    1.000 --     9 C    0.984
    31   1 H    1.004 --     9 C    0.982
    32   1 H    1.005 --    10 C    0.982
    33   1 H    1.000 --    10 C    0.984
    34   1 H    1.002 --    10 C    0.985
    35   1 H    0.959 --    11 N    0.831
    36   1 H    0.992 --    17 C    0.971
    37   1 H    0.991 --    17 C    0.966
    38   1 H    0.991 --    17 C    0.981
    39   1 H    0.989 --    19 C    0.947
    40   1 H    0.989 --    19 C    0.948
    41   1 H    1.009 --    19 C    0.962
    42   1 H    0.942 --    21 N    0.895
 ---------------------------------------------------------------------------

Topologies differ in total number of bonds
Writing topology from bond orders to xtbtopo.mol

 dipole moment from electron density (au)
     X       Y       Z   
 -10.7861   3.5355   0.6171  total (Debye):   28.893

           -------------------------------------------------
          |                Geometry Summary                 |
           -------------------------------------------------

      molecular mass/u    :      351.3152409
   center of mass at/Å    :        0.3956638      -0.1340150      -0.0345282
  moments of inertia/u·Å² :        0.1681516E+04   0.3200495E+04   0.4763410E+04
rotational constants/cm⁻¹ :        0.1002526E-01   0.5267195E-02   0.3538984E-02

 * 38 selected distances

     #   Z          #   Z                                           value/Å
     1   6 C        2   8 O                                       1.4220485
     2   8 O        3   6 C                                       1.3503194
     3   6 C        4   8 O                                       1.2304799
     6   7 N        7   6 C                                       1.2809280
     8   6 C        9   6 C                                       1.5323359
     8   6 C       10   6 C                                       1.5326325 (max)
     8   6 C       11   7 N                                       1.4623316
    11   7 N       12   6 C                                       1.3245238
    12   6 C       13   8 O                                       1.2160273
    14   6 C       15   7 N                                       1.2987338
    15   7 N       16   7 N                                       1.3517089
    16   7 N       17   6 C                                       1.4455983
    16   7 N       18   6 C                                       1.3175050
    18   6 C       19   6 C                                       1.4722306
    14   6 C       20   8 O                                       1.3470263
    18   6 C       20   8 O                                       1.3138964
     7   6 C       21   7 N                                       1.3734549
    21   7 N       22   6 C                                       1.3781063
    22   6 C       23   8 O                                       1.2255964
     5   6 C       24   6 C                                       1.4189706
    24   6 C       25   8 O                                       1.2414346
     1   6 C       26   1 H                                       1.0894239
     1   6 C       27   1 H                                       1.0934474
     1   6 C       28   1 H                                       1.0935097
     9   6 C       29   1 H                                       1.0890444
     9   6 C       30   1 H                                       1.0881682
     9   6 C       31   1 H                                       1.0891111
    10   6 C       32   1 H                                       1.0889424
    10   6 C       33   1 H                                       1.0883638
    10   6 C       34   1 H                                       1.0889060
    11   7 N       35   1 H                                       1.0290202
    17   6 C       36   1 H                                       1.0881298
    17   6 C       37   1 H                                       1.0893997
    17   6 C       38   1 H                                       1.0859465
    19   6 C       39   1 H                                       1.0898167
    19   6 C       40   1 H                                       1.0899268
    19   6 C       41   1 H                                       1.0924990
    21   7 N       42   1 H                                       1.0068662 (min)

 * 6 distinct bonds (by element types)

   Z      Z             #   av. dist./Å        max./Å        min./Å
   1 H    6 C          15     1.0896423     1.0935097     1.0859465
   6 C    6 C           4     1.4890424     1.5326325     1.4189706
   1 H    7 N           2     1.0179432     1.0290202     1.0068662
   6 C    7 N           8     1.3601477     1.4623316     1.2809280
   7 N    7 N           1     1.3517089     1.3517089     1.3517089
   6 C    8 O           8     1.2933536     1.4220485     1.2160273


optimized geometry written to: xtbopt.xyz


           -------------------------------------------------
          | TOTAL ENERGY              -82.984102239819 Eh   |
          | GRADIENT NORM               0.000554569152 Eh/α |
          | HOMO-LUMO GAP               0.772124951310 eV   |
           -------------------------------------------------

------------------------------------------------------------------------
 * finished run on 2023/06/21 at 17:22:56.623     
------------------------------------------------------------------------
 total:
 * wall-time:     0 d,  0 h,  0 min,  8.187 sec
 *  cpu-time:     0 d,  0 h,  0 min,  8.164 sec
 * ratio c/w:     0.997 speedup
 SCF:
 * wall-time:     0 d,  0 h,  0 min,  0.176 sec
 *  cpu-time:     0 d,  0 h,  0 min,  0.176 sec
 * ratio c/w:     1.000 speedup
 ANC optimizer:
 * wall-time:     0 d,  0 h,  0 min,  7.959 sec
 *  cpu-time:     0 d,  0 h,  0 min,  7.949 sec
 * ratio c/w:     0.999 speedup

