      -----------------------------------------------------------      
     |                   =====================                   |     
     |                           x T B                           |     
     |                   =====================                   |     
     |                         S. Grimme                         |     
     |          Mulliken Center for Theoretical Chemistry        |     
     |                    University of Bonn                     |     
      -----------------------------------------------------------      

   * xtb version 6.5.1 (579679a) compiled by 'ehlert@majestix' on 2022-07-11

   xtb is free software: you can redistribute it and/or modify it under
   the terms of the GNU Lesser General Public License as published by
   the Free Software Foundation, either version 3 of the License, or
   (at your option) any later version.
   
   xtb is distributed in the hope that it will be useful,
   but WITHOUT ANY WARRANTY; without even the implied warranty of
   MERCHANTABILITY or FITNESS FOR A PARTICULAR PURPOSE.  See the
   GNU Lesser General Public License for more details.
   
   Cite this work as:
   * C. Bannwarth, E. Caldeweyher, S. Ehlert, A. Hansen, P. Pracht,
     J. Seibert, S. Spicher, S. Grimme, WIREs Comput. Mol. Sci., 2020, 11,
     e01493. DOI: 10.1002/wcms.1493
   
   for GFN2-xTB:
   * C. Bannwarth, S. Ehlert and S. Grimme., J. Chem. Theory Comput., 2019,
     15, 1652-1671. DOI: 10.1021/acs.jctc.8b01176
   for GFN1-xTB:
   * S. Grimme, C. Bannwarth, P. Shushkov, J. Chem. Theory Comput., 2017,
     13, 1989-2009. DOI: 10.1021/acs.jctc.7b00118
   for GFN0-xTB:
   * P. Pracht, E. Caldeweyher, S. Ehlert, S. Grimme, ChemRxiv, 2019, preprint.
     DOI: 10.26434/chemrxiv.8326202.v1
   for GFN-FF:
   * S. Spicher and S. Grimme, Angew. Chem. Int. Ed., 2020, 59, 15665-15673.
     DOI: 10.1002/anie.202004239
   
   for ALPB and GBSA implicit solvation:
   * S. Ehlert, M. Stahn, S. Spicher, S. Grimme, J. Chem. Theory Comput.,
     2021, 17, 4250-4261. DOI: 10.1021/acs.jctc.1c00471
   
   for DFT-D4:
   * E. Caldeweyher, C. Bannwarth and S. Grimme, J. Chem. Phys., 2017,
     147, 034112. DOI: 10.1063/1.4993215
   * E. Caldeweyher, S. Ehlert, A. Hansen, H. Neugebauer, S. Spicher,
     C. Bannwarth and S. Grimme, J. Chem. Phys., 2019, 150, 154122.
     DOI: 10.1063/1.5090222
   * E. Caldeweyher, J.-M. Mewes, S. Ehlert and S. Grimme, Phys. Chem. Chem. Phys.
     2020, 22, 8499-8512. DOI: 10.1039/D0CP00502A
   
   for sTDA-xTB:
   * S. Grimme and C. Bannwarth, J. Chem. Phys., 2016, 145, 054103.
     DOI: 10.1063/1.4959605
   
   in the mass-spec context:
   * V. Asgeirsson, C. Bauer and S. Grimme, Chem. Sci., 2017, 8, 4879.
     DOI: 10.1039/c7sc00601b
   * J. Koopman and S. Grimme, ACS Omega 2019, 4, 12, 15120-15133.
     DOI: 10.1021/acsomega.9b02011
   
   for metadynamics refer to:
   * S. Grimme, J. Chem. Theory Comput., 2019, 155, 2847-2862
     DOI: 10.1021/acs.jctc.9b00143
   
   for SPH calculations refer to:
   * S. Spicher and S. Grimme, J. Chem. Theory Comput., 2021, 17, 1701-1714
     DOI: 10.1021/acs.jctc.0c01306
   
   with help from (in alphabetical order)
   P. Atkinson, C. Bannwarth, F. Bohle, G. Brandenburg, E. Caldeweyher
   M. Checinski, S. Dohm, S. Ehlert, S. Ehrlich, I. Gerasimov, C. Hölzer
   A. Katbashev, J. Koopman, C. Lavigne, S. Lehtola, F. März, M. Müller,
   F. Musil, H. Neugebauer, J. Pisarek, C. Plett, P. Pracht, F. Pultar,
   J. Seibert, P. Shushkov, S. Spicher, M. Stahn, M. Steiner, T. Strunk,
   J. Stückrath, T. Rose, and J. Unsleber
   
 * started run on 2023/06/20 at 15:13:48.407     

           -------------------------------------------------
          |                Calculation Setup                |
           -------------------------------------------------

          program call               : /lustre/hpc/kemi/ree/PhD/git/ReactivityQM/dep/xtb-6.5.1/bin/xtb --gfn 1 /lustre/hpc/kemi/ree/PhD/git/ReactivityQM/calculations/R03/reac01prodE04/conf09/R03_reac01prodE04_conf09_gfn1.xyz --opt --vfukui --chrg -1 --uhf 0 --alpb DMSO
          hostname                   : node068
          coordinate file            : /lustre/hpc/kemi/ree/PhD/git/ReactivityQM/calculations/R03/reac01prodE04/conf09/R03_reac01prodE04_conf09_gfn1.xyz
          omp threads                :                     1

   ID    Z sym.   atoms
    1    6 C      1, 2, 4-7, 9, 10
    2    9 F      3
    3    7 N      8
    4    1 H      11-21

           -------------------------------------------------
          |                 G F N 1 - x T B                 |
           -------------------------------------------------

        Reference                      10.1021/acs.jctc.7b00118
      * Hamiltonian:
        H0-scaling (s, p, d)           1.850000    2.250000    2.000000
        zeta-weighting                 0.000000
      * Dispersion:
        s8                             2.400000
        a1                             0.630000
        a2                             5.000000
        s9                             0.000000
      * Repulsion:
        kExp                           1.500000
        rExp                           1.000000
      * Coulomb:
        alpha                          2.000000
        third order                    atomic
        anisotropic                    false
      * Halogen bond correction:
        rad-scale                      1.300000
        damping                        0.440000

      * Solvation model:               ALPB
        Solvent                        DMSO
        Parameter file                 internal GFN1-xTB/ALPB
        Dielectric constant                4.6680E+01
        Reference state                gsolv [1 M gas/solution]
        Free energy shift                  7.6243E-03 Eh       4.7843E+00 kcal/mol
        Temperature                        2.9815E+02 K
        Density                            1.1000E+00 kg/L
        Solvent mass                       7.8130E+01 g/mol
        Interaction kernel             P16
        Born radius scaling (c1)           1.7672E+00
        Born radii integrator          GBOBC
        Born offset                        0.0000E+00 a0       0.0000E+00 AA
        H-bond correction              true
        Ion screening                  false
        Surface tension                    1.0000E-05 Eh       1.5569E+01 dyn/cm
        Grid points                               230 per atom

          ...................................................
          :                      SETUP                      :
          :.................................................:
          :  # basis functions                  62          :
          :  # atomic orbitals                  62          :
          :  # shells                           42          :
          :  # electrons                        56          :
          :  # halogen bonds                     0          :
          :  max. iterations                   250          :
          :  Hamiltonian                  GFN1-xTB          :
          :  restarted?                      false          :
          :  GBSA solvation                   true          :
          :  PC potential                    false          :
          :  electronic temp.          300.0000000     K    :
          :  accuracy                    1.0000000          :
          :  -> integral cutoff          0.2500000E+02      :
          :  -> integral neglect         0.1000000E-07      :
          :  -> SCF convergence          0.1000000E-05 Eh   :
          :  -> wf. convergence          0.2000000E-04 e    :
          :  Broyden damping             0.4000000          :
          ...................................................

 iter      E             dE          RMSdq      gap      omega  full diag
   1    -31.8109185 -0.318109E+02  0.903E+00    2.81       0.0  T
   2    -31.8498267 -0.389083E-01  0.542E+00    2.84       1.0  T
   3    -31.8501743 -0.347611E-03  0.545E-01    2.79       1.0  T
   4    -31.8516318 -0.145743E-02  0.113E-01    2.81       1.0  T
   5    -31.8517526 -0.120890E-03  0.255E-02    2.82       1.0  T
   6    -31.8517611 -0.847584E-05  0.494E-03    2.82       4.4  T
   7    -31.8517613 -0.153609E-06  0.125E-03    2.82      17.5  T
   8    -31.8517613 -0.493240E-08  0.162E-04    2.82     135.1  T
   9    -31.8517613 -0.187715E-09  0.458E-05    2.82     476.5  T

   *** convergence criteria satisfied after 9 iterations ***

         #    Occupation            Energy/Eh            Energy/eV
      -------------------------------------------------------------
         1        2.0000           -0.7864550             -21.4005
       ...           ...                  ...                  ...
        22        2.0000           -0.4305980             -11.7172
        23        2.0000           -0.4128328             -11.2338
        24        2.0000           -0.4040040             -10.9935
        25        2.0000           -0.3894524             -10.5975
        26        2.0000           -0.3705601             -10.0835
        27        2.0000           -0.3665453              -9.9742
        28        2.0000           -0.2826270              -7.6907 (HOMO)
        29                         -0.1790618              -4.8725 (LUMO)
        30                         -0.1121056              -3.0505
        31                         -0.0909136              -2.4739
        32                         -0.0755754              -2.0565
        33                         -0.0707343              -1.9248
       ...                                ...                  ...
        62                          0.6650594              18.0972
      -------------------------------------------------------------
                  HL-Gap            0.1035652 Eh            2.8182 eV
             Fermi-level           -0.2308444 Eh           -6.2816 eV

 SCC (total)                   0 d,  0 h,  0 min,  0.035 sec
 SCC setup                      ...        0 min,  0.001 sec (  2.055%)
 Dispersion                     ...        0 min,  0.000 sec (  0.268%)
 classical contributions        ...        0 min,  0.000 sec (  0.100%)
 integral evaluation            ...        0 min,  0.008 sec ( 23.601%)
 iterations                     ...        0 min,  0.008 sec ( 23.478%)
 molecular gradient             ...        0 min,  0.017 sec ( 49.648%)
 printout                       ...        0 min,  0.000 sec (  0.787%)

         :::::::::::::::::::::::::::::::::::::::::::::::::::::
         ::                     SUMMARY                     ::
         :::::::::::::::::::::::::::::::::::::::::::::::::::::
         :: total energy             -31.469380839373 Eh    ::
         :: total w/o Gsasa/hb       -31.458635711537 Eh    ::
         :: gradient norm              0.082549780541 Eh/a0 ::
         :: HOMO-LUMO gap              2.818152019245 eV    ::
         ::.................................................::
         :: SCC energy               -31.851761279253 Eh    ::
         :: -> electrostatic           0.139740054292 Eh    ::
         :: -> Gsolv                  -0.084721236254 Eh    ::
         ::    -> Gelec               -0.073976108418 Eh    ::
         ::    -> Gsasa               -0.014243027848 Eh    ::
         ::    -> Ghb                 -0.004126378993 Eh    ::
         ::    -> Gshift               0.007624279005 Eh    ::
         :: repulsion energy           0.392227858749 Eh    ::
         :: dispersion energy         -0.009847418869 Eh    ::
         :: halogen bond corr.         0.000000000000 Eh    ::
         :: add. restraining           0.000000000000 Eh    ::
         :: total charge              -1.000000000000 e     ::
         :::::::::::::::::::::::::::::::::::::::::::::::::::::

      ----------------------------------------------------------- 
     |                   =====================                   |
     |                        A N C O P T                        |
     |                   =====================                   |
     |               Approximate Normal Coordinate               |
     |                Rational Function Optimizer                |
      ----------------------------------------------------------- 

          ...................................................
          :                      SETUP                      :
          :.................................................:
          :   optimization level            normal          :
          :   max. optcycles                   200          :
          :   ANC micro-cycles                  20          :
          :   degrees of freedom                57          :
          :.................................................:
          :   RF solver                   davidson          :
          :   write xtbopt.log                true          :
          :   linear?                        false          :
          :   energy convergence         0.5000000E-05 Eh   :
          :   grad. convergence          0.1000000E-02 Eh/α :
          :   maximium RF displ.         1.0000000          :
          :   Hlow (freq-cutoff)         0.1000000E-01      :
          :   Hmax (freq-cutoff)         5.0000000          :
          :   S6 in model hess.         20.0000000          :
          ...................................................

generating ANC from model Hessian ...
Using Lindh-Hessian (1995)
 Shifting diagonal of input Hessian by   8.195263918183805E-003
 Lowest  eigenvalues of input Hessian
    0.000000    0.000000    0.000000    0.000000    0.000000    0.000000
    0.010000    0.011284    0.015024    0.016418    0.016824    0.019571
    0.022582    0.024781    0.028368    0.032453    0.045881    0.047515
 Highest eigenvalues
    1.393381    1.427944    1.511532    1.727197    1.902529    1.967239
 

........................................................................
.............................. CYCLE    1 ..............................
........................................................................
   1    -31.8517613 -0.318518E+02  0.848E-06    2.82       0.0  T
   2    -31.8517613 -0.373035E-12  0.453E-06    2.82    4816.9  T
   3    -31.8517613 -0.710543E-13  0.188E-06    2.82   11592.2  T
     SCC iter.                  ...        0 min,  0.003 sec
     gradient                   ...        0 min,  0.018 sec
 * total energy  :   -31.4693808 Eh     change       -0.1938005E-10 Eh
   gradient norm :     0.0825514 Eh/α   predicted     0.0000000E+00 (-100.00%)
   displ. norm   :     0.2379004 α      lambda       -0.8817228E-02
   maximum displ.:     0.0945372 α      in ANC's #3, #11, #21, ...

........................................................................
.............................. CYCLE    2 ..............................
........................................................................
   1    -31.8498792 -0.318499E+02  0.831E-02    2.81       0.0  T
   2    -31.8499992 -0.120044E-03  0.352E-02    2.81       1.0  T
   3    -31.8500103 -0.111174E-04  0.133E-02    2.81       1.6  T
   4    -31.8500114 -0.102053E-05  0.608E-03    2.81       3.6  T
   5    -31.8500114 -0.186904E-07  0.115E-03    2.81      19.0  T
   6    -31.8500114 -0.881888E-08  0.239E-04    2.81      91.2  T
   7    -31.8500114 -0.261014E-09  0.504E-05    2.81     433.1  T
   8    -31.8500114 -0.104983E-10  0.151E-05    2.81    1443.6  T
     SCC iter.                  ...        0 min,  0.007 sec
     gradient                   ...        0 min,  0.017 sec
 * total energy  :   -31.4754081 Eh     change       -0.6027290E-02 Eh
   gradient norm :     0.0490260 Eh/α   predicted    -0.4659282E-02 ( -22.70%)
   displ. norm   :     0.2382659 α      lambda       -0.4422585E-02
   maximum displ.:     0.1452508 α      in ANC's #3, #13, #7, ...

........................................................................
.............................. CYCLE    3 ..............................
........................................................................
   1    -31.8501069 -0.318501E+02  0.103E-01    2.84       0.0  T
   2    -31.8503513 -0.244406E-03  0.412E-02    2.83       1.0  T
   3    -31.8503732 -0.218613E-04  0.155E-02    2.83       1.4  T
   4    -31.8503754 -0.218849E-05  0.790E-03    2.83       2.8  T
   5    -31.8503754 -0.473139E-07  0.161E-03    2.83      13.6  T
   6    -31.8503754 -0.111826E-07  0.178E-04    2.83     122.3  T
   7    -31.8503754 -0.160703E-09  0.473E-05    2.83     461.6  T
     SCC iter.                  ...        0 min,  0.006 sec
     gradient                   ...        0 min,  0.017 sec
 * total energy  :   -31.4784772 Eh     change       -0.3069106E-02 Eh
   gradient norm :     0.0284325 Eh/α   predicted    -0.2336847E-02 ( -23.86%)
   displ. norm   :     0.2603995 α      lambda       -0.2442261E-02
   maximum displ.:     0.1961834 α      in ANC's #3, #1, #5, ...

........................................................................
.............................. CYCLE    4 ..............................
........................................................................
   1    -31.8529721 -0.318530E+02  0.117E-01    2.90       0.0  T
   2    -31.8533152 -0.343103E-03  0.448E-02    2.89       1.0  T
   3    -31.8533441 -0.288871E-04  0.150E-02    2.88       1.5  T
   4    -31.8533472 -0.306394E-05  0.793E-03    2.88       2.8  T
   5    -31.8533473 -0.929269E-07  0.196E-03    2.88      11.1  T
   6    -31.8533473 -0.855583E-08  0.251E-04    2.88      86.8  T
   7    -31.8533473 -0.267221E-09  0.477E-05    2.88     457.0  T
   8    -31.8533473 -0.131237E-10  0.185E-05    2.88    1176.5  T
     SCC iter.                  ...        0 min,  0.006 sec
     gradient                   ...        0 min,  0.011 sec
 * total energy  :   -31.4803802 Eh     change       -0.1902967E-02 Eh
   gradient norm :     0.0230655 Eh/α   predicted    -0.1303956E-02 ( -31.48%)
   displ. norm   :     0.4026560 α      lambda       -0.2853837E-02
   maximum displ.:     0.3056975 α      in ANC's #3, #1, #5, ...

........................................................................
.............................. CYCLE    5 ..............................
........................................................................
   1    -31.8576241 -0.318576E+02  0.229E-01    3.03       0.0  T
   2    -31.8588646 -0.124049E-02  0.786E-02    2.99       1.0  T
   3    -31.8589636 -0.989878E-04  0.241E-02    2.98       1.0  T
   4    -31.8589739 -0.103787E-04  0.121E-02    2.98       1.8  T
   5    -31.8589743 -0.330139E-06  0.400E-03    2.98       5.5  T
   6    -31.8589743 -0.117114E-07  0.658E-04    2.98      33.2  T
   7    -31.8589743 -0.134257E-08  0.998E-05    2.98     218.7  T
   8    -31.8589743 -0.601297E-10  0.323E-05    2.98     675.3  T
     SCC iter.                  ...        0 min,  0.004 sec
     gradient                   ...        0 min,  0.011 sec
 * total energy  :   -31.4828739 Eh     change       -0.2493666E-02 Eh
   gradient norm :     0.0240275 Eh/α   predicted    -0.1658293E-02 ( -33.50%)
   displ. norm   :     0.6867391 α      lambda       -0.5395079E-02
   maximum displ.:     0.4882255 α      in ANC's #3, #1, #9, ...

........................................................................
.............................. CYCLE    6 ..............................
........................................................................
   1    -31.8631111 -0.318631E+02  0.647E-01    3.42       0.0  T
   2    -31.8707826 -0.767146E-02  0.199E-01    3.19       1.0  T
   3    -31.8715595 -0.776948E-03  0.607E-02    3.17       1.0  T
   4    -31.8716273 -0.678099E-04  0.239E-02    3.14       1.0  T
   5    -31.8716293 -0.202776E-05  0.115E-02    3.14       1.9  T
   6    -31.8716294 -0.843194E-07  0.266E-03    3.14       8.2  T
   7    -31.8716294 -0.909192E-08  0.478E-04    3.14      45.7  T
   8    -31.8716294 -0.745938E-09  0.764E-05    3.14     285.4  T
   9    -31.8716294 -0.243290E-10  0.246E-05    3.14     886.9  T
     SCC iter.                  ...        0 min,  0.005 sec
     gradient                   ...        0 min,  0.010 sec
 * total energy  :   -31.4882283 Eh     change       -0.5354436E-02 Eh
   gradient norm :     0.0332214 Eh/α   predicted    -0.3969726E-02 ( -25.86%)
   displ. norm   :     0.7952978 α      lambda       -0.9526996E-02
   maximum displ.:     0.4648939 α      in ANC's #3, #1, #52, ...

........................................................................
.............................. CYCLE    7 ..............................
........................................................................
   1    -31.8838911 -0.318839E+02  0.884E-01    3.87       0.0  T
   2    -31.8933417 -0.945067E-02  0.296E-01    3.30       1.0  T
   3    -31.8944210 -0.107926E-02  0.123E-01    3.12       1.0  T
   4    -31.8945718 -0.150753E-03  0.278E-02    2.98       1.0  T
   5    -31.8945768 -0.501481E-05  0.128E-02    2.97       1.7  T
   6    -31.8945771 -0.334586E-06  0.404E-03    2.97       5.4  T
   7    -31.8945771 -0.120022E-07  0.112E-03    2.97      19.5  T
   8    -31.8945771 -0.175768E-08  0.133E-04    2.97     163.8  T
   9    -31.8945771 -0.813358E-10  0.332E-05    2.97     657.8  T
     SCC iter.                  ...        0 min,  0.005 sec
     gradient                   ...        0 min,  0.012 sec
 * total energy  :   -31.4947094 Eh     change       -0.6481139E-02 Eh
   gradient norm :     0.0558671 Eh/α   predicted    -0.7776379E-02 (  19.98%)
   displ. norm   :     0.3249025 α      lambda       -0.5592045E-02
   maximum displ.:     0.1582645 α      in ANC's #52, #53, #54, ...

........................................................................
.............................. CYCLE    8 ..............................
........................................................................
   1    -31.9103258 -0.319103E+02  0.296E-01    3.23       0.0  T
   2    -31.9113474 -0.102162E-02  0.113E-01    2.97       1.0  T
   3    -31.9114621 -0.114725E-03  0.532E-02    2.89       1.0  T
   4    -31.9114798 -0.176775E-04  0.902E-03    2.81       2.4  T
   5    -31.9114803 -0.500872E-06  0.373E-03    2.80       5.8  T
   6    -31.9114803 -0.259157E-07  0.101E-03    2.81      21.6  T
   7    -31.9114803 -0.158292E-08  0.239E-04    2.81      91.4  T
   8    -31.9114803 -0.655511E-10  0.464E-05    2.81     470.7  T
   9    -31.9114803 -0.620659E-11  0.820E-06    2.81    2661.9  T
     SCC iter.                  ...        0 min,  0.005 sec
     gradient                   ...        0 min,  0.014 sec
 * total energy  :   -31.4977283 Eh     change       -0.3018841E-02 Eh
   gradient norm :     0.0337925 Eh/α   predicted    -0.3091174E-02 (   2.40%)
   displ. norm   :     0.7120311 α      lambda       -0.6840451E-02
   maximum displ.:     0.4190691 α      in ANC's #1, #3, #52, ...

........................................................................
.............................. CYCLE    9 ..............................
........................................................................
   1    -31.8955453 -0.318955E+02  0.267E-01    2.84       0.0  T
   2    -31.8965374 -0.992184E-03  0.102E-01    2.70       1.0  T
   3    -31.8966394 -0.101998E-03  0.504E-02    2.65       1.0  T
   4    -31.8966456 -0.614598E-05  0.926E-03    2.57       2.4  T
   5    -31.8966461 -0.509341E-06  0.218E-03    2.56      10.0  T
   6    -31.8966461 -0.177663E-07  0.694E-04    2.56      31.4  T
   7    -31.8966461 -0.455529E-09  0.158E-04    2.56     138.4  T
   8    -31.8966461 -0.468638E-10  0.266E-05    2.56     819.5  T
     SCC iter.                  ...        0 min,  0.006 sec
     gradient                   ...        0 min,  0.016 sec
 * total energy  :   -31.5008417 Eh     change       -0.3113423E-02 Eh
   gradient norm :     0.0336490 Eh/α   predicted    -0.5154228E-02 (  65.55%)
   displ. norm   :     0.2104179 α      lambda       -0.3002585E-02
   maximum displ.:     0.0772132 α      in ANC's #1, #11, #52, ...

........................................................................
.............................. CYCLE   10 ..............................
........................................................................
   1    -31.9030805 -0.319031E+02  0.594E-02    2.54       0.0  T
   2    -31.9031147 -0.341695E-04  0.260E-02    2.52       1.0  T
   3    -31.9031180 -0.334261E-05  0.140E-02    2.51       1.6  T
   4    -31.9031187 -0.622259E-06  0.182E-03    2.49      12.0  T
   5    -31.9031187 -0.793804E-08  0.509E-04    2.49      42.9  T
   6    -31.9031187 -0.550543E-09  0.160E-04    2.49     136.7  T
   7    -31.9031187 -0.558522E-10  0.308E-05    2.49     709.3  T
     SCC iter.                  ...        0 min,  0.006 sec
     gradient                   ...        0 min,  0.017 sec
 * total energy  :   -31.5029584 Eh     change       -0.2116642E-02 Eh
   gradient norm :     0.0176612 Eh/α   predicted    -0.1567764E-02 ( -25.93%)
   displ. norm   :     0.4013497 α      lambda       -0.2522901E-02
   maximum displ.:     0.2884234 α      in ANC's #1, #52, #32, ...

........................................................................
.............................. CYCLE   11 ..............................
........................................................................
   1    -31.9100263 -0.319100E+02  0.677E-02    2.47       0.0  T
   2    -31.9101087 -0.824398E-04  0.251E-02    2.45       1.0  T
   3    -31.9101165 -0.778372E-05  0.124E-02    2.44       1.8  T
   4    -31.9101167 -0.247942E-06  0.185E-03    2.42      11.8  T
   5    -31.9101167 -0.798238E-08  0.608E-04    2.42      35.9  T
   6    -31.9101167 -0.132646E-08  0.119E-04    2.42     182.9  T
   7    -31.9101167 -0.193268E-10  0.331E-05    2.42     660.1  T
     SCC iter.                  ...        0 min,  0.004 sec
     gradient                   ...        0 min,  0.010 sec
 * total energy  :   -31.5047981 Eh     change       -0.1839713E-02 Eh
   gradient norm :     0.0122150 Eh/α   predicted    -0.1464648E-02 ( -20.39%)
   displ. norm   :     0.5575459 α      lambda       -0.2044814E-02
   maximum displ.:     0.4381320 α      in ANC's #1, #52, #6, ...

........................................................................
.............................. CYCLE   12 ..............................
........................................................................
   1    -31.9083364 -0.319083E+02  0.735E-02    2.40       0.0  T
   2    -31.9084614 -0.125006E-03  0.264E-02    2.38       1.0  T
   3    -31.9084726 -0.111603E-04  0.988E-03    2.38       2.2  T
   4    -31.9084727 -0.903993E-07  0.243E-03    2.37       9.0  T
   5    -31.9084727 -0.123053E-07  0.669E-04    2.37      32.6  T
   6    -31.9084727 -0.141005E-08  0.893E-05    2.37     244.5  T
   7    -31.9084727 -0.180442E-10  0.278E-05    2.37     785.4  T
     SCC iter.                  ...        0 min,  0.003 sec
     gradient                   ...        0 min,  0.013 sec
 * total energy  :   -31.5062993 Eh     change       -0.1501214E-02 Eh
   gradient norm :     0.0150068 Eh/α   predicted    -0.1340236E-02 ( -10.72%)
   displ. norm   :     0.5384589 α      lambda       -0.1696995E-02
   maximum displ.:     0.4416671 α      in ANC's #1, #52, #3, ...

........................................................................
.............................. CYCLE   13 ..............................
........................................................................
   1    -31.9103263 -0.319103E+02  0.523E-02    2.34       0.0  T
   2    -31.9103872 -0.609633E-04  0.201E-02    2.34       1.1  T
   3    -31.9103928 -0.553209E-05  0.816E-03    2.34       2.7  T
   4    -31.9103929 -0.808813E-07  0.198E-03    2.33      11.0  T
   5    -31.9103929 -0.695915E-08  0.643E-04    2.33      34.0  T
   6    -31.9103929 -0.894048E-09  0.774E-05    2.33     282.1  T
   7    -31.9103929 -0.132943E-10  0.198E-05    2.33    1100.2  T
     SCC iter.                  ...        0 min,  0.006 sec
     gradient                   ...        0 min,  0.016 sec
 * total energy  :   -31.5073769 Eh     change       -0.1077592E-02 Eh
   gradient norm :     0.0145687 Eh/α   predicted    -0.1094520E-02 (   1.57%)
   displ. norm   :     0.4658395 α      lambda       -0.1087423E-02
   maximum displ.:     0.3424293 α      in ANC's #1, #52, #6, ...

........................................................................
.............................. CYCLE   14 ..............................
........................................................................
   1    -31.9098635 -0.319099E+02  0.442E-02    2.31       0.0  T
   2    -31.9099000 -0.364977E-04  0.170E-02    2.31       1.3  T
   3    -31.9099033 -0.322368E-05  0.787E-03    2.31       2.8  T
   4    -31.9099033 -0.679446E-07  0.156E-03    2.31      14.0  T
   5    -31.9099033 -0.495598E-08  0.439E-04    2.31      49.7  T
   6    -31.9099033 -0.541185E-09  0.905E-05    2.31     241.0  T
   7    -31.9099033 -0.273026E-10  0.176E-05    2.31    1239.1  T
     SCC iter.                  ...        0 min,  0.006 sec
     gradient                   ...        0 min,  0.023 sec
 * total energy  :   -31.5080848 Eh     change       -0.7079035E-03 Eh
   gradient norm :     0.0100387 Eh/α   predicted    -0.6617101E-03 (  -6.53%)
   displ. norm   :     0.3128955 α      lambda       -0.5367798E-03
   maximum displ.:     0.2281556 α      in ANC's #1, #17, #52, ...

........................................................................
.............................. CYCLE   15 ..............................
........................................................................
   1    -31.9124939 -0.319125E+02  0.211E-02    2.29       0.0  T
   2    -31.9125038 -0.983094E-05  0.810E-03    2.29       2.7  T
   3    -31.9125046 -0.831243E-06  0.363E-03    2.29       6.0  T
   4    -31.9125046 -0.206369E-07  0.846E-04    2.29      25.8  T
   5    -31.9125046 -0.130990E-08  0.247E-04    2.29      88.2  T
   6    -31.9125046 -0.125258E-09  0.593E-05    2.29     368.1  T
   7    -31.9125046 -0.617462E-11  0.129E-05    2.29    1696.3  T
     SCC iter.                  ...        0 min,  0.005 sec
     gradient                   ...        0 min,  0.016 sec
 * total energy  :   -31.5084166 Eh     change       -0.3318377E-03 Eh
   gradient norm :     0.0090840 Eh/α   predicted    -0.2946678E-03 ( -11.20%)
   displ. norm   :     0.2770580 α      lambda       -0.2674804E-03
   maximum displ.:     0.2068294 α      in ANC's #1, #17, #52, ...

........................................................................
.............................. CYCLE   16 ..............................
........................................................................
   1    -31.9119663 -0.319120E+02  0.164E-02    2.27       0.0  T
   2    -31.9119718 -0.547238E-05  0.482E-03    2.28       4.5  T
   3    -31.9119722 -0.449126E-06  0.239E-03    2.28       9.1  T
   4    -31.9119722 -0.996940E-08  0.754E-04    2.28      28.9  T
   5    -31.9119722 -0.446285E-09  0.105E-04    2.28     208.6  T
   6    -31.9119722 -0.739888E-10  0.255E-05    2.28     855.2  T
     SCC iter.                  ...        0 min,  0.004 sec
     gradient                   ...        0 min,  0.014 sec
 * total energy  :   -31.5085785 Eh     change       -0.1618491E-03 Eh
   gradient norm :     0.0059982 Eh/α   predicted    -0.1440093E-03 ( -11.02%)
   displ. norm   :     0.1812152 α      lambda       -0.2140235E-03
   maximum displ.:     0.1097899 α      in ANC's #1, #3, #17, ...

........................................................................
.............................. CYCLE   17 ..............................
........................................................................
   1    -31.9133786 -0.319134E+02  0.124E-02    2.27       0.0  T
   2    -31.9133802 -0.158624E-05  0.514E-03    2.28       4.2  T
   3    -31.9133802 -0.468687E-07  0.281E-03    2.28       7.8  T
   4    -31.9133802 -0.181246E-08  0.486E-04    2.28      44.9  T
   5    -31.9133802 -0.275877E-08  0.136E-04    2.28     160.9  T
   6    -31.9133802 -0.141572E-09  0.548E-05    2.28     398.5  T
     SCC iter.                  ...        0 min,  0.004 sec
     gradient                   ...        0 min,  0.016 sec
 * total energy  :   -31.5086763 Eh     change       -0.9787786E-04 Eh
   gradient norm :     0.0068660 Eh/α   predicted    -0.1105329E-03 (  12.93%)
   displ. norm   :     0.1448079 α      lambda       -0.1940837E-03
   maximum displ.:     0.1027501 α      in ANC's #1, #17, #12, ...

........................................................................
.............................. CYCLE   18 ..............................
........................................................................
   1    -31.9142511 -0.319143E+02  0.114E-02    2.27       0.0  T
   2    -31.9142529 -0.185417E-05  0.534E-03    2.27       4.1  T
   3    -31.9142530 -0.117334E-06  0.307E-03    2.28       7.1  T
   4    -31.9142530 -0.612008E-08  0.562E-04    2.28      38.8  T
   5    -31.9142530 -0.159988E-08  0.118E-04    2.28     184.4  T
   6    -31.9142530 -0.829132E-10  0.379E-05    2.28     576.3  T
     SCC iter.                  ...        0 min,  0.003 sec
     gradient                   ...        0 min,  0.010 sec
 * total energy  :   -31.5087788 Eh     change       -0.1024264E-03 Eh
   gradient norm :     0.0054555 Eh/α   predicted    -0.9908665E-04 (  -3.26%)
   displ. norm   :     0.0841373 α      lambda       -0.1248401E-03
   maximum displ.:     0.0370729 α      in ANC's #13, #3, #12, ...

........................................................................
.............................. CYCLE   19 ..............................
........................................................................
   1    -31.9132122 -0.319132E+02  0.746E-03    2.28       0.0  T
   2    -31.9132124 -0.258162E-06  0.364E-03    2.28       6.0  T
   3    -31.9132125 -0.141521E-07  0.138E-03    2.28      15.8  T
   4    -31.9132125 -0.763531E-08  0.351E-04    2.29      62.1  T
   5    -31.9132125 -0.344240E-09  0.707E-05    2.29     308.8  T
   6    -31.9132125 -0.223750E-10  0.207E-05    2.29    1056.6  T
     SCC iter.                  ...        0 min,  0.003 sec
     gradient                   ...        0 min,  0.010 sec
 * total energy  :   -31.5088848 Eh     change       -0.1060849E-03 Eh
   gradient norm :     0.0054771 Eh/α   predicted    -0.6286672E-04 ( -40.74%)
   displ. norm   :     0.3421759 α      lambda       -0.4792051E-03
   maximum displ.:     0.1335147 α      in ANC's #17, #12, #13, ...

........................................................................
.............................. CYCLE   20 ..............................
........................................................................
   1    -31.9120399 -0.319120E+02  0.337E-02    2.28       0.0  T
   2    -31.9120487 -0.879404E-05  0.160E-02    2.30       1.4  T
   3    -31.9120494 -0.629480E-06  0.740E-03    2.31       2.9  T
   4    -31.9120495 -0.168357E-06  0.150E-03    2.32      14.6  T
   5    -31.9120495 -0.579514E-08  0.406E-04    2.33      53.8  T
   6    -31.9120495 -0.530225E-09  0.996E-05    2.33     219.1  T
   7    -31.9120495 -0.397513E-10  0.167E-05    2.33    1303.3  T
     SCC iter.                  ...        0 min,  0.005 sec
     gradient                   ...        0 min,  0.012 sec
 * total energy  :   -31.5091515 Eh     change       -0.2666193E-03 Eh
   gradient norm :     0.0093156 Eh/α   predicted    -0.2676573E-03 (   0.39%)
   displ. norm   :     0.0908212 α      lambda       -0.1327987E-03
   maximum displ.:     0.0512575 α      in ANC's #17, #13, #1, ...
 * RMSD in coord.:     1.1525941 α      energy gain  -0.3977063E-01 Eh

generating ANC from model Hessian ...
Using Lindh-Hessian (1995)
 Shifting diagonal of input Hessian by   1.011287447005645E-002
 Lowest  eigenvalues of input Hessian
    0.010000    0.000000    0.000000    0.000000    0.000000    0.000000
    0.000000    0.010119    0.011814    0.013639    0.014276    0.017954
    0.019085    0.019571    0.025347    0.025807    0.027442    0.034405
 Highest eigenvalues
    1.402405    1.541685    1.596558    1.869676    1.942482    1.993912
 

........................................................................
.............................. CYCLE   21 ..............................
........................................................................
   1    -31.9115872 -0.319116E+02  0.621E-03    2.32       0.0  T
   2    -31.9115875 -0.226261E-06  0.341E-03    2.32       6.4  T
   3    -31.9115875 -0.163639E-07  0.127E-03    2.33      17.2  T
   4    -31.9115875 -0.106763E-08  0.285E-04    2.33      76.5  T
   5    -31.9115875 -0.422215E-09  0.680E-05    2.33     320.9  T
   6    -31.9115875 -0.319496E-10  0.223E-05    2.33     979.9  T
     SCC iter.                  ...        0 min,  0.003 sec
     gradient                   ...        0 min,  0.010 sec
 * total energy  :   -31.5092467 Eh     change       -0.9527360E-04 Eh
   gradient norm :     0.0063579 Eh/α   predicted     0.0000000E+00 (-100.00%)
   displ. norm   :     0.1014900 α      lambda       -0.2345206E-03
   maximum displ.:     0.0735283 α      in ANC's #1, #6, #8, ...

........................................................................
.............................. CYCLE   22 ..............................
........................................................................
   1    -31.9135140 -0.319135E+02  0.911E-03    2.32       0.0  T
   2    -31.9135145 -0.517448E-06  0.433E-03    2.33       5.0  T
   3    -31.9135145 -0.296695E-07  0.174E-03    2.33      12.5  T
   4    -31.9135145 -0.756409E-08  0.507E-04    2.33      43.0  T
   5    -31.9135145 -0.690687E-09  0.117E-04    2.33     186.5  T
   6    -31.9135145 -0.916636E-10  0.230E-05    2.33     950.2  T
     SCC iter.                  ...        0 min,  0.003 sec
     gradient                   ...        0 min,  0.010 sec
 * total energy  :   -31.5094305 Eh     change       -0.1837958E-03 Eh
   gradient norm :     0.0026489 Eh/α   predicted    -0.1186446E-03 ( -35.45%)
   displ. norm   :     0.1759404 α      lambda       -0.2163391E-03
   maximum displ.:     0.1345816 α      in ANC's #1, #6, #2, ...

........................................................................
.............................. CYCLE   23 ..............................
........................................................................
   1    -31.9145680 -0.319146E+02  0.137E-02    2.32       0.0  T
   2    -31.9145698 -0.174691E-05  0.623E-03    2.33       3.5  T
   3    -31.9145699 -0.104242E-06  0.297E-03    2.33       7.4  T
   4    -31.9145699 -0.187022E-07  0.770E-04    2.33      28.3  T
   5    -31.9145699 -0.170936E-08  0.201E-04    2.33     108.5  T
   6    -31.9145699 -0.197716E-09  0.413E-05    2.33     528.2  T
   7    -31.9145699 -0.584777E-11  0.992E-06    2.33    2200.3  T
     SCC iter.                  ...        0 min,  0.004 sec
     gradient                   ...        0 min,  0.010 sec
 * total energy  :   -31.5095809 Eh     change       -0.1503877E-03 Eh
   gradient norm :     0.0018890 Eh/α   predicted    -0.1115222E-03 ( -25.84%)
   displ. norm   :     0.1913459 α      lambda       -0.8474816E-04
   maximum displ.:     0.1616225 α      in ANC's #1, #2, #6, ...

........................................................................
.............................. CYCLE   24 ..............................
........................................................................
   1    -31.9143633 -0.319144E+02  0.130E-02    2.32       0.0  T
   2    -31.9143658 -0.251615E-05  0.521E-03    2.32       4.2  T
   3    -31.9143659 -0.164719E-06  0.260E-03    2.33       8.4  T
   4    -31.9143659 -0.132080E-07  0.696E-04    2.33      31.3  T
   5    -31.9143659 -0.106689E-08  0.213E-04    2.33     102.6  T
   6    -31.9143659 -0.151374E-09  0.379E-05    2.33     575.5  T
   7    -31.9143659 -0.540012E-11  0.888E-06    2.33    2458.0  T
     SCC iter.                  ...        0 min,  0.003 sec
     gradient                   ...        0 min,  0.010 sec
 * total energy  :   -31.5096811 Eh     change       -0.1001354E-03 Eh
   gradient norm :     0.0026580 Eh/α   predicted    -0.4306474E-04 ( -56.99%)
   displ. norm   :     0.0917976 α      lambda       -0.6636158E-04
   maximum displ.:     0.0780846 α      in ANC's #1, #2, #5, ...

........................................................................
.............................. CYCLE   25 ..............................
........................................................................
   1    -31.9140916 -0.319141E+02  0.548E-03    2.32       0.0  T
   2    -31.9140922 -0.599334E-06  0.189E-03    2.33      11.6  T
   3    -31.9140922 -0.424286E-07  0.848E-04    2.33      25.7  T
   4    -31.9140922 -0.179863E-08  0.217E-04    2.33     100.7  T
   5    -31.9140922 -0.836344E-10  0.715E-05    2.33     305.3  T
   6    -31.9140922 -0.138023E-10  0.152E-05    2.33    1437.7  T
     SCC iter.                  ...        0 min,  0.003 sec
     gradient                   ...        0 min,  0.009 sec
 * total energy  :   -31.5097441 Eh     change       -0.6303693E-04 Eh
   gradient norm :     0.0020956 Eh/α   predicted    -0.3346390E-04 ( -46.91%)
   displ. norm   :     0.1367772 α      lambda       -0.1017499E-03
   maximum displ.:     0.1091383 α      in ANC's #1, #2, #6, ...

........................................................................
.............................. CYCLE   26 ..............................
........................................................................
   1    -31.9137522 -0.319138E+02  0.802E-03    2.32       0.0  T
   2    -31.9137533 -0.104244E-05  0.316E-03    2.32       6.9  T
   3    -31.9137533 -0.721051E-07  0.160E-03    2.32      13.7  T
   4    -31.9137533 -0.495186E-08  0.346E-04    2.32      63.1  T
   5    -31.9137533 -0.246207E-09  0.109E-04    2.32     199.9  T
   6    -31.9137533 -0.418652E-10  0.246E-05    2.32     887.6  T
     SCC iter.                  ...        0 min,  0.003 sec
     gradient                   ...        0 min,  0.009 sec
 * total energy  :   -31.5098363 Eh     change       -0.9215909E-04 Eh
   gradient norm :     0.0012160 Eh/α   predicted    -0.5182716E-04 ( -43.76%)
   displ. norm   :     0.2880037 α      lambda       -0.1171401E-03
   maximum displ.:     0.2223581 α      in ANC's #1, #2, #6, ...

........................................................................
.............................. CYCLE   27 ..............................
........................................................................
   1    -31.9132760 -0.319133E+02  0.166E-02    2.31       0.0  T
   2    -31.9132800 -0.402899E-05  0.684E-03    2.32       3.2  T
   3    -31.9132803 -0.282600E-06  0.342E-03    2.32       6.4  T
   4    -31.9132803 -0.260041E-07  0.697E-04    2.32      31.3  T
   5    -31.9132803 -0.102392E-08  0.236E-04    2.32      92.4  T
   6    -31.9132803 -0.186716E-09  0.486E-05    2.32     448.7  T
   7    -31.9132803 -0.139728E-10  0.126E-05    2.32    1733.2  T
     SCC iter.                  ...        0 min,  0.003 sec
     gradient                   ...        0 min,  0.010 sec
 * total energy  :   -31.5099755 Eh     change       -0.1392601E-03 Eh
   gradient norm :     0.0021391 Eh/α   predicted    -0.6073158E-04 ( -56.39%)
   displ. norm   :     0.1687494 α      lambda       -0.7692918E-04
   maximum displ.:     0.1282923 α      in ANC's #1, #2, #7, ...

........................................................................
.............................. CYCLE   28 ..............................
........................................................................
   1    -31.9133558 -0.319134E+02  0.101E-02    2.31       0.0  T
   2    -31.9133572 -0.135489E-05  0.420E-03    2.31       5.2  T
   3    -31.9133573 -0.984457E-07  0.197E-03    2.31      11.1  T
   4    -31.9133573 -0.115331E-07  0.391E-04    2.31      55.8  T
   5    -31.9133573 -0.341618E-09  0.141E-04    2.31     154.6  T
   6    -31.9133573 -0.592522E-10  0.272E-05    2.31     802.2  T
     SCC iter.                  ...        0 min,  0.003 sec
     gradient                   ...        0 min,  0.010 sec
 * total energy  :   -31.5100475 Eh     change       -0.7196016E-04 Eh
   gradient norm :     0.0022589 Eh/α   predicted    -0.3956210E-04 ( -45.02%)
   displ. norm   :     0.2359692 α      lambda       -0.1060029E-03
   maximum displ.:     0.1742328 α      in ANC's #1, #2, #7, ...

........................................................................
.............................. CYCLE   29 ..............................
........................................................................
   1    -31.9135762 -0.319136E+02  0.149E-02    2.30       0.0  T
   2    -31.9135789 -0.266671E-05  0.626E-03    2.31       3.5  T
   3    -31.9135791 -0.197703E-06  0.284E-03    2.31       7.7  T
   4    -31.9135791 -0.274967E-07  0.576E-04    2.31      37.9  T
   5    -31.9135791 -0.705068E-09  0.206E-04    2.31     105.7  T
   6    -31.9135791 -0.119226E-09  0.391E-05    2.31     558.7  T
   7    -31.9135791 -0.834888E-11  0.114E-05    2.31    1911.5  T
     SCC iter.                  ...        0 min,  0.003 sec
     gradient                   ...        0 min,  0.009 sec
 * total energy  :   -31.5101509 Eh     change       -0.1034393E-03 Eh
   gradient norm :     0.0019690 Eh/α   predicted    -0.5595344E-04 ( -45.91%)
   displ. norm   :     0.9353964 α      lambda       -0.2782069E-03
   maximum displ.:     0.6765720 α      in ANC's #1, #2, #7, ...

........................................................................
.............................. CYCLE   30 ..............................
........................................................................
   1    -31.9124755 -0.319125E+02  0.520E-02    2.28       0.0  T
   2    -31.9125108 -0.352494E-04  0.213E-02    2.29       1.0  T
   3    -31.9125134 -0.266280E-05  0.962E-03    2.30       2.3  T
   4    -31.9125138 -0.328115E-06  0.219E-03    2.30      10.0  T
   5    -31.9125138 -0.724977E-08  0.756E-04    2.30      28.9  T
   6    -31.9125138 -0.121684E-08  0.130E-04    2.30     167.3  T
   7    -31.9125138 -0.908038E-10  0.340E-05    2.30     642.5  T
     SCC iter.                  ...        0 min,  0.003 sec
     gradient                   ...        0 min,  0.009 sec
 * total energy  :   -31.5105858 Eh     change       -0.4349160E-03 Eh
   gradient norm :     0.0057015 Eh/α   predicted    -0.1931979E-03 ( -55.58%)
   displ. norm   :     0.8430873 α      lambda       -0.3878251E-03
   maximum displ.:     0.6014594 α      in ANC's #1, #2, #7, ...

........................................................................
.............................. CYCLE   31 ..............................
........................................................................
   1    -31.9098620 -0.319099E+02  0.322E-02    2.28       0.0  T
   2    -31.9098783 -0.163340E-04  0.127E-02    2.28       1.7  T
   3    -31.9098796 -0.124078E-05  0.609E-03    2.28       3.6  T
   4    -31.9098797 -0.102909E-06  0.158E-03    2.28      13.8  T
   5    -31.9098797 -0.260169E-08  0.523E-04    2.28      41.7  T
   6    -31.9098797 -0.501117E-09  0.857E-05    2.28     254.8  T
   7    -31.9098797 -0.320455E-10  0.156E-05    2.28    1395.9  T
     SCC iter.                  ...        0 min,  0.003 sec
     gradient                   ...        0 min,  0.010 sec
 * total energy  :   -31.5107319 Eh     change       -0.1461050E-03 Eh
   gradient norm :     0.0125088 Eh/α   predicted    -0.3317478E-03 ( 127.06%)
   displ. norm   :     0.0925500 α      lambda       -0.3615335E-03
   maximum displ.:     0.0599779 α      in ANC's #5, #6, #1, ...

........................................................................
.............................. CYCLE   32 ..............................
........................................................................
   1    -31.9131605 -0.319132E+02  0.164E-02    2.28       0.0  T
   2    -31.9131609 -0.368663E-06  0.830E-03    2.29       2.6  T
   3    -31.9131609 -0.429542E-07  0.170E-03    2.29      12.8  T
   4    -31.9131609 -0.933796E-08  0.604E-04    2.29      36.1  T
   5    -31.9131609 -0.183287E-08  0.858E-05    2.29     254.2  T
   6    -31.9131609 -0.330687E-10  0.239E-05    2.29     911.2  T
     SCC iter.                  ...        0 min,  0.003 sec
     gradient                   ...        0 min,  0.010 sec
 * total energy  :   -31.5109819 Eh     change       -0.2499658E-03 Eh
   gradient norm :     0.0044715 Eh/α   predicted    -0.1823242E-03 ( -27.06%)
   displ. norm   :     0.2909213 α      lambda       -0.3213531E-03
   maximum displ.:     0.1702925 α      in ANC's #5, #2, #1, ...

........................................................................
.............................. CYCLE   33 ..............................
........................................................................
   1    -31.9150310 -0.319150E+02  0.224E-02    2.29       0.0  T
   2    -31.9150337 -0.270540E-05  0.990E-03    2.30       2.2  T
   3    -31.9150341 -0.340570E-06  0.241E-03    2.31       9.0  T
   4    -31.9150341 -0.334488E-07  0.102E-03    2.32      21.3  T
   5    -31.9150341 -0.230062E-08  0.254E-04    2.32      85.7  T
   6    -31.9150341 -0.215120E-09  0.841E-05    2.32     259.4  T
   7    -31.9150341 -0.258353E-10  0.133E-05    2.32    1644.7  T
     SCC iter.                  ...        0 min,  0.004 sec
     gradient                   ...        0 min,  0.010 sec
 * total energy  :   -31.5112308 Eh     change       -0.2488480E-03 Eh
   gradient norm :     0.0023949 Eh/α   predicted    -0.1742753E-03 ( -29.97%)
   displ. norm   :     0.5155707 α      lambda       -0.3241705E-03
   maximum displ.:     0.3078727 α      in ANC's #2, #1, #5, ...

........................................................................
.............................. CYCLE   34 ..............................
........................................................................
   1    -31.9142731 -0.319143E+02  0.210E-02    2.31       0.0  T
   2    -31.9142774 -0.425734E-05  0.893E-03    2.32       2.4  T
   3    -31.9142778 -0.423766E-06  0.310E-03    2.33       7.0  T
   4    -31.9142779 -0.680667E-07  0.108E-03    2.33      20.2  T
   5    -31.9142779 -0.241951E-08  0.323E-04    2.34      67.6  T
   6    -31.9142779 -0.220094E-09  0.744E-05    2.34     293.3  T
   7    -31.9142779 -0.215046E-10  0.149E-05    2.34    1463.0  T
     SCC iter.                  ...        0 min,  0.004 sec
     gradient                   ...        0 min,  0.010 sec
 * total energy  :   -31.5114592 Eh     change       -0.2284858E-03 Eh
   gradient norm :     0.0031336 Eh/α   predicted    -0.2051694E-03 ( -10.20%)
   displ. norm   :     0.2546169 α      lambda       -0.1159619E-03
   maximum displ.:     0.1588827 α      in ANC's #2, #5, #7, ...

........................................................................
.............................. CYCLE   35 ..............................
........................................................................
   1    -31.9134127 -0.319134E+02  0.106E-02    2.33       0.0  T
   2    -31.9134136 -0.891141E-06  0.455E-03    2.34       4.8  T
   3    -31.9134137 -0.104954E-06  0.135E-03    2.34      16.1  T
   4    -31.9134137 -0.993193E-08  0.497E-04    2.35      43.9  T
   5    -31.9134137 -0.488019E-09  0.151E-04    2.35     144.3  T
   6    -31.9134137 -0.763407E-10  0.362E-05    2.35     603.0  T
     SCC iter.                  ...        0 min,  0.003 sec
     gradient                   ...        0 min,  0.010 sec
 * total energy  :   -31.5115414 Eh     change       -0.8220770E-04 Eh
   gradient norm :     0.0034648 Eh/α   predicted    -0.6173998E-04 ( -24.90%)
   displ. norm   :     0.1679407 α      lambda       -0.8348074E-04
   maximum displ.:     0.1159410 α      in ANC's #2, #5, #7, ...

........................................................................
.............................. CYCLE   36 ..............................
........................................................................
   1    -31.9134942 -0.319135E+02  0.867E-03    2.34       0.0  T
   2    -31.9134946 -0.467887E-06  0.365E-03    2.35       6.0  T
   3    -31.9134947 -0.501361E-07  0.103E-03    2.35      21.3  T
   4    -31.9134947 -0.378511E-08  0.363E-04    2.35      60.1  T
   5    -31.9134947 -0.194966E-09  0.112E-04    2.36     195.3  T
   6    -31.9134947 -0.247624E-10  0.281E-05    2.36     776.9  T
     SCC iter.                  ...        0 min,  0.003 sec
     gradient                   ...        0 min,  0.010 sec
 * total energy  :   -31.5116055 Eh     change       -0.6404153E-04 Eh
   gradient norm :     0.0024961 Eh/α   predicted    -0.4292242E-04 ( -32.98%)
   displ. norm   :     0.1722793 α      lambda       -0.8564066E-04
   maximum displ.:     0.1249324 α      in ANC's #2, #7, #5, ...

........................................................................
.............................. CYCLE   37 ..............................
........................................................................
   1    -31.9139671 -0.319140E+02  0.722E-03    2.36       0.0  T
   2    -31.9139675 -0.364475E-06  0.309E-03    2.36       7.1  T
   3    -31.9139675 -0.284694E-07  0.109E-03    2.36      20.0  T
   4    -31.9139675 -0.323401E-08  0.329E-04    2.36      66.3  T
   5    -31.9139675 -0.118799E-09  0.107E-04    2.36     204.8  T
   6    -31.9139675 -0.212061E-10  0.222E-05    2.36     984.9  T
     SCC iter.                  ...        0 min,  0.003 sec
     gradient                   ...        0 min,  0.009 sec
 * total energy  :   -31.5116711 Eh     change       -0.6562515E-04 Eh
   gradient norm :     0.0022580 Eh/α   predicted    -0.4409188E-04 ( -32.81%)
   displ. norm   :     0.1749295 α      lambda       -0.8021366E-04
   maximum displ.:     0.1140330 α      in ANC's #2, #7, #1, ...

........................................................................
.............................. CYCLE   38 ..............................
........................................................................
   1    -31.9145060 -0.319145E+02  0.645E-03    2.36       0.0  T
   2    -31.9145064 -0.390955E-06  0.271E-03    2.37       8.1  T
   3    -31.9145064 -0.248775E-07  0.109E-03    2.37      20.1  T
   4    -31.9145064 -0.348864E-08  0.281E-04    2.37      77.7  T
   5    -31.9145064 -0.109445E-09  0.101E-04    2.37     216.4  T
   6    -31.9145064 -0.164846E-10  0.221E-05    2.37     987.3  T
     SCC iter.                  ...        0 min,  0.003 sec
     gradient                   ...        0 min,  0.009 sec
 * total energy  :   -31.5117320 Eh     change       -0.6089930E-04 Eh
   gradient norm :     0.0023392 Eh/α   predicted    -0.4133575E-04 ( -32.12%)
   displ. norm   :     0.1814491 α      lambda       -0.7177817E-04
   maximum displ.:     0.0973460 α      in ANC's #1, #2, #7, ...

........................................................................
.............................. CYCLE   39 ..............................
........................................................................
   1    -31.9147848 -0.319148E+02  0.491E-03    2.37       0.0  T
   2    -31.9147852 -0.378534E-06  0.180E-03    2.37      12.1  T
   3    -31.9147852 -0.186535E-07  0.811E-04    2.37      26.9  T
   4    -31.9147852 -0.216307E-08  0.203E-04    2.37     107.6  T
   5    -31.9147852 -0.144873E-09  0.690E-05    2.37     316.1  T
   6    -31.9147852 -0.716227E-11  0.203E-05    2.37    1076.6  T
     SCC iter.                  ...        0 min,  0.003 sec
     gradient                   ...        0 min,  0.010 sec
 * total energy  :   -31.5117906 Eh     change       -0.5859769E-04 Eh
   gradient norm :     0.0022486 Eh/α   predicted    -0.3707110E-04 ( -36.74%)
   displ. norm   :     0.2206021 α      lambda       -0.8533076E-04
   maximum displ.:     0.1555047 α      in ANC's #1, #7, #2, ...

........................................................................
.............................. CYCLE   40 ..............................
........................................................................
   1    -31.9150097 -0.319150E+02  0.608E-03    2.38       0.0  T
   2    -31.9150104 -0.714295E-06  0.199E-03    2.38      11.0  T
   3    -31.9150105 -0.387749E-07  0.866E-04    2.38      25.2  T
   4    -31.9150105 -0.265952E-08  0.249E-04    2.38      87.6  T
   5    -31.9150105 -0.246022E-09  0.737E-05    2.38     296.1  T
   6    -31.9150105 -0.801137E-11  0.232E-05    2.38     938.9  T
     SCC iter.                  ...        0 min,  0.003 sec
     gradient                   ...        0 min,  0.010 sec
 * total energy  :   -31.5118584 Eh     change       -0.6778523E-04 Eh
   gradient norm :     0.0021759 Eh/α   predicted    -0.4474184E-04 ( -33.99%)
   displ. norm   :     0.1645177 α      lambda       -0.6778897E-04
   maximum displ.:     0.1341865 α      in ANC's #1, #5, #7, ...

........................................................................
.............................. CYCLE   41 ..............................
........................................................................
   1    -31.9154141 -0.319154E+02  0.493E-03    2.39       0.0  T
   2    -31.9154146 -0.424965E-06  0.142E-03    2.39      15.3  T
   3    -31.9154146 -0.280494E-07  0.588E-04    2.39      37.1  T
   4    -31.9154146 -0.183973E-08  0.188E-04    2.39     116.3  T
   5    -31.9154146 -0.812719E-10  0.631E-05    2.39     345.7  T
     SCC iter.                  ...        0 min,  0.003 sec
     gradient                   ...        0 min,  0.015 sec
 * total energy  :   -31.5119173 Eh     change       -0.5892456E-04 Eh
   gradient norm :     0.0018223 Eh/α   predicted    -0.3481289E-04 ( -40.92%)
   displ. norm   :     0.3369141 α      lambda       -0.9090830E-04
   maximum displ.:     0.2659786 α      in ANC's #1, #5, #7, ...

........................................................................
.............................. CYCLE   42 ..............................
........................................................................
   1    -31.9151153 -0.319151E+02  0.949E-03    2.40       0.0  T
   2    -31.9151171 -0.184142E-05  0.323E-03    2.40       6.8  T
   3    -31.9151172 -0.136860E-06  0.149E-03    2.40      14.7  T
   4    -31.9151172 -0.624591E-08  0.444E-04    2.40      49.2  T
   5    -31.9151172 -0.270152E-09  0.127E-04    2.40     172.4  T
   6    -31.9151172 -0.286988E-10  0.335E-05    2.40     651.4  T
     SCC iter.                  ...        0 min,  0.004 sec
     gradient                   ...        0 min,  0.013 sec
 * total energy  :   -31.5120071 Eh     change       -0.8979125E-04 Eh
   gradient norm :     0.0026711 Eh/α   predicted    -0.4774758E-04 ( -46.82%)
   displ. norm   :     0.2120557 α      lambda       -0.6092053E-04
   maximum displ.:     0.1250666 α      in ANC's #1, #2, #5, ...
 * RMSD in coord.:     0.8281152 α      energy gain  -0.2855641E-02 Eh

generating ANC from model Hessian ...
Using Lindh-Hessian (1995)
 Shifting diagonal of input Hessian by   9.596583931185879E-003
 Lowest  eigenvalues of input Hessian
    0.000000    0.000000    0.000000    0.000000    0.000000    0.000000
    0.010000    0.010089    0.011445    0.013118    0.017170    0.018348
    0.019144    0.021088    0.024852    0.025469    0.027180    0.033721
 Highest eigenvalues
    1.396832    1.540839    1.600550    1.868135    1.941954    1.993788
 

........................................................................
.............................. CYCLE   43 ..............................
........................................................................
   1    -31.9164460 -0.319164E+02  0.922E-03    2.40       0.0  T
   2    -31.9164464 -0.375313E-06  0.445E-03    2.40       4.9  T
   3    -31.9164464 -0.170299E-07  0.186E-03    2.40      11.8  T
   4    -31.9164464 -0.117651E-07  0.356E-04    2.40      61.2  T
   5    -31.9164464 -0.428688E-09  0.894E-05    2.40     244.0  T
   6    -31.9164464 -0.238316E-10  0.211E-05    2.40    1032.6  T
     SCC iter.                  ...        0 min,  0.004 sec
     gradient                   ...        0 min,  0.012 sec
 * total energy  :   -31.5120276 Eh     change       -0.2045736E-04 Eh
   gradient norm :     0.0046812 Eh/α   predicted     0.0000000E+00 (-100.00%)
   displ. norm   :     0.0292303 α      lambda       -0.4660170E-04
   maximum displ.:     0.0144520 α      in ANC's #1, #6, #3, ...

........................................................................
.............................. CYCLE   44 ..............................
........................................................................
   1    -31.9153225 -0.319153E+02  0.495E-03    2.40       0.0  T
   2    -31.9153226 -0.336002E-07  0.252E-03    2.40       8.6  T
   3    -31.9153226 -0.301633E-08  0.482E-04    2.40      45.3  T
   4    -31.9153226 -0.442178E-09  0.152E-04    2.40     143.1  T
   5    -31.9153226 -0.118444E-09  0.272E-05    2.40     802.9  T
     SCC iter.                  ...        0 min,  0.004 sec
     gradient                   ...        0 min,  0.010 sec
 * total energy  :   -31.5120597 Eh     change       -0.3209205E-04 Eh
   gradient norm :     0.0013822 Eh/α   predicted    -0.2335748E-04 ( -27.22%)
   displ. norm   :     0.0715974 α      lambda       -0.2271585E-04
   maximum displ.:     0.0395213 α      in ANC's #1, #6, #3, ...

........................................................................
.............................. CYCLE   45 ..............................
........................................................................
   1    -31.9143206 -0.319143E+02  0.447E-03    2.40       0.0  T
   2    -31.9143207 -0.502946E-07  0.224E-03    2.40       9.7  T
   3    -31.9143207 -0.465453E-08  0.563E-04    2.40      38.7  T
   4    -31.9143207 -0.732015E-09  0.185E-04    2.40     117.8  T
   5    -31.9143207 -0.129670E-09  0.451E-05    2.40     484.2  T
     SCC iter.                  ...        0 min,  0.004 sec
     gradient                   ...        0 min,  0.011 sec
 * total energy  :   -31.5120802 Eh     change       -0.2057213E-04 Eh
   gradient norm :     0.0022174 Eh/α   predicted    -0.1138620E-04 ( -44.65%)
   displ. norm   :     0.0553902 α      lambda       -0.1752478E-04
   maximum displ.:     0.0319866 α      in ANC's #1, #6, #2, ...

........................................................................
.............................. CYCLE   46 ..............................
........................................................................
   1    -31.9142836 -0.319143E+02  0.126E-03    2.40       0.0  T
   2    -31.9142836 -0.121296E-07  0.544E-04    2.40      40.1  T
   3    -31.9142836 -0.109937E-08  0.210E-04    2.41     103.8  T
   4    -31.9142836 -0.143494E-09  0.589E-05    2.41     370.6  T
   5    -31.9142836 -0.552447E-11  0.200E-05    2.41    1088.8  T
     SCC iter.                  ...        0 min,  0.003 sec
     gradient                   ...        0 min,  0.010 sec
 * total energy  :   -31.5120968 Eh     change       -0.1652316E-04 Eh
   gradient norm :     0.0025157 Eh/α   predicted    -0.8808244E-05 ( -46.69%)
   displ. norm   :     0.2461769 α      lambda       -0.7971499E-04
   maximum displ.:     0.1392585 α      in ANC's #1, #6, #2, ...

........................................................................
.............................. CYCLE   47 ..............................
........................................................................
   1    -31.9140374 -0.319140E+02  0.483E-03    2.40       0.0  T
   2    -31.9140376 -0.219814E-06  0.196E-03    2.41      11.1  T
   3    -31.9140376 -0.173353E-07  0.766E-04    2.41      28.5  T
   4    -31.9140376 -0.266557E-08  0.173E-04    2.41     126.3  T
   5    -31.9140376 -0.712923E-10  0.671E-05    2.41     325.2  T
     SCC iter.                  ...        0 min,  0.003 sec
     gradient                   ...        0 min,  0.010 sec
 * total energy  :   -31.5121609 Eh     change       -0.6419531E-04 Eh
   gradient norm :     0.0034228 Eh/α   predicted    -0.4227536E-04 ( -34.15%)
   displ. norm   :     0.3096872 α      lambda       -0.7911528E-04
   maximum displ.:     0.1845802 α      in ANC's #1, #6, #2, ...

........................................................................
.............................. CYCLE   48 ..............................
........................................................................
   1    -31.9132450 -0.319132E+02  0.620E-03    2.41       0.0  T
   2    -31.9132454 -0.396503E-06  0.257E-03    2.41       8.5  T
   3    -31.9132454 -0.223449E-07  0.113E-03    2.41      19.3  T
   4    -31.9132454 -0.338670E-08  0.230E-04    2.42      94.9  T
   5    -31.9132454 -0.920082E-10  0.973E-05    2.42     224.4  T
   6    -31.9132454 -0.172271E-10  0.163E-05    2.42    1339.6  T
     SCC iter.                  ...        0 min,  0.003 sec
     gradient                   ...        0 min,  0.012 sec
 * total energy  :   -31.5122126 Eh     change       -0.5164535E-04 Eh
   gradient norm :     0.0050132 Eh/α   predicted    -0.4335244E-04 ( -16.06%)
   displ. norm   :     0.1437001 α      lambda       -0.5489746E-04
   maximum displ.:     0.0998718 α      in ANC's #1, #6, #2, ...

........................................................................
.............................. CYCLE   49 ..............................
........................................................................
   1    -31.9141653 -0.319142E+02  0.373E-03    2.42       0.0  T
   2    -31.9141655 -0.139651E-06  0.164E-03    2.42      13.3  T
   3    -31.9141655 -0.522152E-08  0.843E-04    2.42      25.9  T
   4    -31.9141655 -0.619085E-09  0.134E-04    2.42     162.5  T
   5    -31.9141655 -0.447145E-10  0.478E-05    2.42     456.3  T
     SCC iter.                  ...        0 min,  0.003 sec
     gradient                   ...        0 min,  0.010 sec
 * total energy  :   -31.5122580 Eh     change       -0.4544535E-04 Eh
   gradient norm :     0.0029263 Eh/α   predicted    -0.2802031E-04 ( -38.34%)
   displ. norm   :     0.1896437 α      lambda       -0.5891286E-04
   maximum displ.:     0.1373990 α      in ANC's #1, #6, #2, ...

........................................................................
.............................. CYCLE   50 ..............................
........................................................................
   1    -31.9152348 -0.319152E+02  0.449E-03    2.42       0.0  T
   2    -31.9152351 -0.293043E-06  0.179E-03    2.42      12.2  T
   3    -31.9152351 -0.113302E-07  0.955E-04    2.42      22.9  T
   4    -31.9152351 -0.852285E-09  0.191E-04    2.42     114.4  T
   5    -31.9152351 -0.726246E-10  0.616E-05    2.42     354.0  T
     SCC iter.                  ...        0 min,  0.003 sec
     gradient                   ...        0 min,  0.011 sec
 * total energy  :   -31.5123044 Eh     change       -0.4640052E-04 Eh
   gradient norm :     0.0008591 Eh/α   predicted    -0.3051815E-04 ( -34.23%)
   displ. norm   :     0.3296540 α      lambda       -0.4364019E-04
   maximum displ.:     0.2334553 α      in ANC's #1, #6, #2, ...

........................................................................
.............................. CYCLE   51 ..............................
........................................................................
   1    -31.9148354 -0.319148E+02  0.687E-03    2.42       0.0  T
   2    -31.9148362 -0.863637E-06  0.238E-03    2.42       9.2  T
   3    -31.9148363 -0.341631E-07  0.112E-03    2.42      19.5  T
   4    -31.9148363 -0.207010E-08  0.279E-04    2.41      78.3  T
   5    -31.9148363 -0.122558E-09  0.990E-05    2.41     220.4  T
   6    -31.9148363 -0.223075E-10  0.253E-05    2.41     864.0  T
     SCC iter.                  ...        0 min,  0.003 sec
     gradient                   ...        0 min,  0.010 sec
 * total energy  :   -31.5123557 Eh     change       -0.5127872E-04 Eh
   gradient norm :     0.0017654 Eh/α   predicted    -0.2288195E-04 ( -55.38%)
   displ. norm   :     0.2248348 α      lambda       -0.3688434E-04
   maximum displ.:     0.1763437 α      in ANC's #1, #6, #2, ...

........................................................................
.............................. CYCLE   52 ..............................
........................................................................
   1    -31.9157825 -0.319158E+02  0.547E-03    2.42       0.0  T
   2    -31.9157830 -0.524259E-06  0.192E-03    2.42      11.4  T
   3    -31.9157831 -0.197430E-07  0.100E-03    2.41      21.8  T
   4    -31.9157831 -0.933085E-09  0.217E-04    2.41     100.6  T
   5    -31.9157831 -0.897344E-10  0.691E-05    2.41     315.8  T
   6    -31.9157831 -0.169180E-10  0.189E-05    2.41    1155.0  T
     SCC iter.                  ...        0 min,  0.003 sec
     gradient                   ...        0 min,  0.010 sec
 * total energy  :   -31.5123999 Eh     change       -0.4419139E-04 Eh
   gradient norm :     0.0023169 Eh/α   predicted    -0.1885892E-04 ( -57.32%)
   displ. norm   :     0.1647598 α      lambda       -0.3673673E-04
   maximum displ.:     0.1259627 α      in ANC's #1, #6, #2, ...

........................................................................
.............................. CYCLE   53 ..............................
........................................................................
   1    -31.9155786 -0.319156E+02  0.373E-03    2.41       0.0  T
   2    -31.9155789 -0.266901E-06  0.128E-03    2.41      17.1  T
   3    -31.9155789 -0.110326E-07  0.592E-04    2.42      36.9  T
   4    -31.9155789 -0.767574E-09  0.125E-04    2.42     174.4  T
   5    -31.9155789 -0.405826E-10  0.490E-05    2.42     445.1  T
     SCC iter.                  ...        0 min,  0.003 sec
     gradient                   ...        0 min,  0.010 sec
 * total energy  :   -31.5124348 Eh     change       -0.3487576E-04 Eh
   gradient norm :     0.0018767 Eh/α   predicted    -0.1886972E-04 ( -45.89%)
   displ. norm   :     0.3895899 α      lambda       -0.6424697E-04
   maximum displ.:     0.3070475 α      in ANC's #1, #6, #3, ...

........................................................................
.............................. CYCLE   54 ..............................
........................................................................
   1    -31.9147212 -0.319147E+02  0.933E-03    2.42       0.0  T
   2    -31.9147229 -0.168959E-05  0.312E-03    2.42       7.0  T
   3    -31.9147230 -0.674108E-07  0.145E-03    2.42      15.1  T
   4    -31.9147230 -0.461339E-08  0.321E-04    2.42      67.9  T
   5    -31.9147230 -0.205919E-09  0.120E-04    2.42     181.4  T
   6    -31.9147230 -0.219664E-10  0.299E-05    2.42     731.0  T
     SCC iter.                  ...        0 min,  0.003 sec
     gradient                   ...        0 min,  0.010 sec
 * total energy  :   -31.5125071 Eh     change       -0.7230194E-04 Eh
   gradient norm :     0.0021270 Eh/α   predicted    -0.3429109E-04 ( -52.57%)
   displ. norm   :     0.1395559 α      lambda       -0.3649679E-04
   maximum displ.:     0.1127486 α      in ANC's #1, #3, #6, ...

........................................................................
.............................. CYCLE   55 ..............................
........................................................................
   1    -31.9151876 -0.319152E+02  0.413E-03    2.42       0.0  T
   2    -31.9151879 -0.240225E-06  0.151E-03    2.42      14.5  T
   3    -31.9151879 -0.959048E-08  0.749E-04    2.42      29.1  T
   4    -31.9151879 -0.809084E-09  0.152E-04    2.42     143.9  T
   5    -31.9151879 -0.313101E-10  0.551E-05    2.42     396.1  T
     SCC iter.                  ...        0 min,  0.003 sec
     gradient                   ...        0 min,  0.010 sec
 * total energy  :   -31.5125370 Eh     change       -0.2988078E-04 Eh
   gradient norm :     0.0013679 Eh/α   predicted    -0.1860579E-04 ( -37.73%)
   displ. norm   :     0.2401444 α      lambda       -0.2992085E-04
   maximum displ.:     0.1930147 α      in ANC's #1, #6, #3, ...

........................................................................
.............................. CYCLE   56 ..............................
........................................................................
   1    -31.9155021 -0.319155E+02  0.605E-03    2.42       0.0  T
   2    -31.9155028 -0.730371E-06  0.164E-03    2.42      13.3  T
   3    -31.9155028 -0.267390E-07  0.693E-04    2.42      31.5  T
   4    -31.9155028 -0.131216E-08  0.167E-04    2.42     130.8  T
   5    -31.9155028 -0.359783E-10  0.575E-05    2.42     379.2  T
     SCC iter.                  ...        0 min,  0.003 sec
     gradient                   ...        0 min,  0.010 sec
 * total energy  :   -31.5125657 Eh     change       -0.2870185E-04 Eh
   gradient norm :     0.0011340 Eh/α   predicted    -0.1534404E-04 ( -46.54%)
   displ. norm   :     0.1168262 α      lambda       -0.8686736E-05
   maximum displ.:     0.0922776 α      in ANC's #1, #6, #8, ...

........................................................................
.............................. CYCLE   57 ..............................
........................................................................
   1    -31.9153400 -0.319153E+02  0.298E-03    2.42       0.0  T
   2    -31.9153402 -0.187026E-06  0.106E-03    2.42      20.7  T
   3    -31.9153402 -0.697151E-08  0.510E-04    2.42      42.8  T
   4    -31.9153402 -0.406743E-09  0.105E-04    2.42     207.4  T
   5    -31.9153402 -0.915890E-11  0.384E-05    2.42     568.5  T
     SCC iter.                  ...        0 min,  0.003 sec
     gradient                   ...        0 min,  0.010 sec
 * total energy  :   -31.5125729 Eh     change       -0.7230851E-05 Eh
   gradient norm :     0.0010253 Eh/α   predicted    -0.4370134E-05 ( -39.56%)
   displ. norm   :     0.0459917 α      lambda       -0.5872107E-05
   maximum displ.:     0.0248994 α      in ANC's #1, #7, #3, ...

........................................................................
.............................. CYCLE   58 ..............................
........................................................................
   1    -31.9156393 -0.319156E+02  0.212E-03    2.42       0.0  T
   2    -31.9156394 -0.475099E-07  0.921E-04    2.42      23.7  T
   3    -31.9156394 -0.282407E-08  0.449E-04    2.42      48.6  T
   4    -31.9156394 -0.376236E-09  0.118E-04    2.42     184.8  T
   5    -31.9156394 -0.281126E-10  0.272E-05    2.42     801.7  T
     SCC iter.                  ...        0 min,  0.003 sec
     gradient                   ...        0 min,  0.013 sec
 * total energy  :   -31.5125788 Eh     change       -0.5886028E-05 Eh
   gradient norm :     0.0005158 Eh/α   predicted    -0.2939117E-05 ( -50.07%)
   displ. norm   :     0.0418255 α      lambda       -0.4089087E-05
   maximum displ.:     0.0240285 α      in ANC's #3, #7, #6, ...

........................................................................
.............................. CYCLE   59 ..............................
........................................................................
   1    -31.9155666 -0.319156E+02  0.119E-03    2.42       0.0  T
   2    -31.9155666 -0.269103E-07  0.393E-04    2.42      55.5  T
   3    -31.9155666 -0.224525E-08  0.184E-04    2.42     118.9  T
   4    -31.9155666 -0.714451E-10  0.476E-05    2.42     458.2  T
     SCC iter.                  ...        0 min,  0.003 sec
     gradient                   ...        0 min,  0.016 sec
 * total energy  :   -31.5125828 Eh     change       -0.4057470E-05 Eh
   gradient norm :     0.0005745 Eh/α   predicted    -0.2051001E-05 ( -49.45%)
   displ. norm   :     0.0358095 α      lambda       -0.2663588E-05
   maximum displ.:     0.0250033 α      in ANC's #3, #5, #1, ...

   *** GEOMETRY OPTIMIZATION CONVERGED AFTER 59 ITERATIONS ***

------------------------------------------------------------------------
 total energy gain   :        -0.0432020 Eh      -27.1097 kcal/mol
 total RMSD          :         1.4128053 a0        0.7476 Å
 total power (kW/mol):        -1.9224890 (step)  -87.6290 (real)
------------------------------------------------------------------------

 ANCopt (total)                0 d,  0 h,  0 min,  1.294 sec
 optimizer setup                ...        0 min,  0.001 sec (  0.045%)
 model hessian                  ...        0 min,  0.014 sec (  1.114%)
 ANC generation                 ...        0 min,  0.002 sec (  0.126%)
 coordinate transformation      ...        0 min,  0.000 sec (  0.032%)
 single point calculation       ...        0 min,  1.266 sec ( 97.812%)
 optimization log               ...        0 min,  0.005 sec (  0.394%)
 hessian update                 ...        0 min,  0.000 sec (  0.038%)
 rational function              ...        0 min,  0.004 sec (  0.287%)

================
 final structure:
================
21
 xtb: 6.5.1 (579679a)
C           -3.10883783914404        0.09282833741563       -0.02375905695219
C           -1.62823227647475       -0.02250960471664        0.18483491457009
F           -3.53985215089017        0.76221854009123       -2.98023626211170
C           -0.96101369717593       -1.21365656530330       -0.09934491538274
C            0.41324791432857       -1.31464176397328        0.06164796850836
C            1.15746508184140       -0.22930041833329        0.51731109769290
C            2.65586541888798       -0.32981141489838        0.67077833389901
N            3.32797005169524        0.24930331117661       -0.50366667225052
C            0.49314476288980        0.95995206155437        0.80766177418929
C           -0.88074781863881        1.06183215894997        0.64283463032907
H           -3.31517235491886        0.33280324482523       -1.07946439792686
H           -3.53068072252656        0.88418062082897        0.59629148666040
H           -3.60846493117185       -0.84686427558839        0.21396538715388
H           -1.52085622224541       -2.07759539192435       -0.44465141043208
H            0.91101340191555       -2.25370731750243       -0.15938751372918
H            2.95535308394315       -1.38016997974560        0.74330654996996
H            2.97813416927362        0.18486430800394        1.58813268250535
H            3.20601671645454        1.25467333693152       -0.47832725666468
H            4.31754796316705        0.07620409693735       -0.40385819283389
H            1.05438319512355        1.81248494061532        1.17518477285726
H           -1.37628474649970        1.99691177476105        0.88439907993994
 
 Bond Distances (Angstroems)
 ---------------------------
C1-C2=1.4997         C1-H11=1.1021        C1-H12=1.0903        C1-H13=1.0905        C2-C1=1.4997         C2-C4=1.3946         
C2-C10=1.3944        C4-C2=1.3946         C4-C5=1.3873         C4-H14=1.0858        C5-C4=1.3873         C5-C6=1.3926         
C5-H15=1.0856        C6-C5=1.3926         C6-C7=1.5096         C6-C9=1.3928         C7-C6=1.5096         C7-N8=1.4719         
C7-H16=1.0946        C7-H17=1.1001        N8-C7=1.4719         N8-H18=1.0131        N8-H19=1.0095        C9-C6=1.3928         
C9-C10=1.3875        C9-H20=1.0848        C10-C2=1.3944        C10-C9=1.3875        C10-H21=1.0855       H11-C1=1.1021        
H12-C1=1.0903        H13-C1=1.0905        H14-C4=1.0858        H15-C5=1.0856        H16-C7=1.0946        H17-C7=1.1001        
H18-N8=1.0131        H19-N8=1.0095        H20-C9=1.0848        H21-C10=1.0855       
 C  H  Rav=1.0910 sigma=0.0062  Rmin=1.0848  Rmax=1.1021     9
 C  C  Rav=1.4198 sigma=0.0491  Rmin=1.3873  Rmax=1.5096     8
 N  H  Rav=1.0113 sigma=0.0018  Rmin=1.0095  Rmax=1.0131     2
 N  C  Rav=1.4719 sigma=0.0000  Rmin=1.4719  Rmax=1.4719     1
 
 selected bond angles (degree)
 --------------------
H11-C1-C2=109.56               H12-C1-C2=111.02               H12-C1-H11=108.32              H13-C1-C2=110.84               
H13-C1-H11=108.10              H13-C1-H12=108.92              C4-C2-C1=120.64                C10-C2-C1=121.01               
C10-C2-C4=118.34               C5-C4-C2=120.83                H14-C4-C2=119.85               H14-C4-C5=119.32               
C6-C5-C4=120.70                H15-C5-C4=119.57               H15-C5-C6=119.72               C7-C6-C5=120.78                
C9-C6-C5=118.60                C9-C6-C7=120.60                N8-C7-C6=110.24                H16-C7-C6=110.01               
H16-C7-N8=107.79               H17-C7-C6=110.14               H17-C7-N8=110.34               H17-C7-H16=108.27              
H18-N8-C7=108.39               H19-N8-C7=107.53               H19-N8-H18=106.60              C10-C9-C6=120.68               
H20-C9-C6=119.66               H20-C9-C10=119.66              C9-C10-C2=120.85               H21-C10-C2=119.89              
H21-C10-C9=119.27              
 
 selected dihedral angles (degree)
 ---------------------------------
C4-C2-C1-H11=276.40           C4-C2-C1-H12=156.80           C4-C2-C1-H13= 35.61           C10-C2-C1-H11= 95.20          
C10-C2-C1-H12=335.60          C10-C2-C1-H13=214.41          C5-C4-C2-C1=178.44            C5-C4-C2-C10=359.60           
H14-C4-C2-C1=358.01           H14-C4-C2-C10=179.18          C6-C5-C4-C2=  0.31            C6-C5-C4-H14=180.73           
H15-C5-C4-C2=179.60           H15-C5-C4-H14=  0.02          C7-C6-C5-C4=181.05            C7-C6-C5-H15=  1.76           
C9-C6-C5-C4=  0.00            C9-C6-C5-H15=180.69           N8-C7-C6-C5= 98.02            N8-C7-C6-C9=279.11            
H16-C7-C6-C5=339.29           H16-C7-C6-C9=160.38           H17-C7-C6-C5=220.01           H17-C7-C6-C9= 41.10           
H18-N8-C7-C6= 70.84           H18-N8-C7-H16=190.93          H18-N8-C7-H17=308.97          H19-N8-C7-C6=185.73           
H19-N8-C7-H16=305.81          H19-N8-C7-H17= 63.85          C10-C9-C6-C5=359.83           C10-C9-C6-C7=178.76           
H20-C9-C6-C5=179.26           H20-C9-C6-C7=358.19           C9-C10-C2-C1=181.38           C9-C10-C2-C4=  0.21           
H21-C10-C2-C1=  1.99          H21-C10-C2-C4=180.82          C2-C10-C9-C6=  0.07           C2-C10-C9-H20=180.64          
H21-C10-C9-C6=179.46          H21-C10-C9-H20=  0.03         
           -------------------------------------------------
          |                Final Singlepoint                |
           -------------------------------------------------

          ...................................................
          :                      SETUP                      :
          :.................................................:
          :  # basis functions                  62          :
          :  # atomic orbitals                  62          :
          :  # shells                           42          :
          :  # electrons                        56          :
          :  # halogen bonds                     0          :
          :  max. iterations                   250          :
          :  Hamiltonian                  GFN1-xTB          :
          :  restarted?                      false          :
          :  GBSA solvation                   true          :
          :  PC potential                    false          :
          :  electronic temp.          300.0000000     K    :
          :  accuracy                    1.0000000          :
          :  -> integral cutoff          0.2500000E+02      :
          :  -> integral neglect         0.1000000E-07      :
          :  -> SCF convergence          0.1000000E-05 Eh   :
          :  -> wf. convergence          0.2000000E-04 e    :
          :  Broyden damping             0.4000000          :
          ...................................................

 iter      E             dE          RMSdq      gap      omega  full diag
   1    -31.9155666 -0.319156E+02  0.111E-05    2.42       0.0  T
   2    -31.9155666 -0.593303E-12  0.581E-06    2.42    3759.1  T
   3    -31.9155666  0.248690E-13  0.187E-06    2.42   11699.5  T

   *** convergence criteria satisfied after 3 iterations ***

         #    Occupation            Energy/Eh            Energy/eV
      -------------------------------------------------------------
         1        2.0000           -0.7367176             -20.0471
       ...           ...                  ...                  ...
        22        2.0000           -0.4469587             -12.1624
        23        2.0000           -0.4214778             -11.4690
        24        2.0000           -0.4068316             -11.0705
        25        2.0000           -0.3959159             -10.7734
        26        2.0000           -0.3328997              -9.0587
        27        2.0000           -0.3328976              -9.0586
        28        2.0000           -0.3324703              -9.0470 (HOMO)
        29                         -0.2433788              -6.6227 (LUMO)
        30                         -0.2399316              -6.5289
        31                         -0.1201807              -3.2703
        32                         -0.1043606              -2.8398
        33                         -0.0990733              -2.6959
       ...                                ...                  ...
        62                          0.6639868              18.0680
      -------------------------------------------------------------
                  HL-Gap            0.0890915 Eh            2.4243 eV
             Fermi-level           -0.2879245 Eh           -7.8348 eV

 SCC (total)                   0 d,  0 h,  0 min,  0.027 sec
 SCC setup                      ...        0 min,  0.001 sec (  2.007%)
 Dispersion                     ...        0 min,  0.000 sec (  0.172%)
 classical contributions        ...        0 min,  0.000 sec (  0.088%)
 integral evaluation            ...        0 min,  0.008 sec ( 27.669%)
 iterations                     ...        0 min,  0.002 sec (  8.249%)
 molecular gradient             ...        0 min,  0.017 sec ( 61.015%)
 printout                       ...        0 min,  0.000 sec (  0.734%)

         :::::::::::::::::::::::::::::::::::::::::::::::::::::
         ::                     SUMMARY                     ::
         :::::::::::::::::::::::::::::::::::::::::::::::::::::
         :: total energy             -31.512582845322 Eh    ::
         :: total w/o Gsasa/hb       -31.500147718702 Eh    ::
         :: gradient norm              0.000576236379 Eh/a0 ::
         :: HOMO-LUMO gap              2.424301962798 eV    ::
         ::.................................................::
         :: SCC energy               -31.915566633388 Eh    ::
         :: -> electrostatic           0.301250241214 Eh    ::
         :: -> Gsolv                  -0.130950058033 Eh    ::
         ::    -> Gelec               -0.118514931413 Eh    ::
         ::    -> Gsasa               -0.015333170552 Eh    ::
         ::    -> Ghb                 -0.004726235072 Eh    ::
         ::    -> Gshift               0.007624279005 Eh    ::
         :: repulsion energy           0.412581300775 Eh    ::
         :: dispersion energy         -0.009597512708 Eh    ::
         :: halogen bond corr.         0.000000000000 Eh    ::
         :: add. restraining           0.000000000000 Eh    ::
         :: total charge              -1.000000000000 e     ::
         :::::::::::::::::::::::::::::::::::::::::::::::::::::

           -------------------------------------------------
          |                Property Printout                |
           -------------------------------------------------

    * Orbital Energies and Occupations

         #    Occupation            Energy/Eh            Energy/eV
      -------------------------------------------------------------
         1        2.0000           -0.7367176             -20.0471
       ...           ...                  ...                  ...
        16        2.0000           -0.5061669             -13.7735
        17        2.0000           -0.4952221             -13.4757
        18        2.0000           -0.4831914             -13.1483
        19        2.0000           -0.4753971             -12.9362
        20        2.0000           -0.4727283             -12.8636
        21        2.0000           -0.4489184             -12.2157
        22        2.0000           -0.4469587             -12.1624
        23        2.0000           -0.4214778             -11.4690
        24        2.0000           -0.4068316             -11.0705
        25        2.0000           -0.3959159             -10.7734
        26        2.0000           -0.3328997              -9.0587
        27        2.0000           -0.3328976              -9.0586
        28        2.0000           -0.3324703              -9.0470 (HOMO)
        29                         -0.2433788              -6.6227 (LUMO)
        30                         -0.2399316              -6.5289
        31                         -0.1201807              -3.2703
        32                         -0.1043606              -2.8398
        33                         -0.0990733              -2.6959
        34                         -0.0979676              -2.6658
        35                         -0.0854802              -2.3260
        36                         -0.0788904              -2.1467
        37                         -0.0741246              -2.0170
        38                         -0.0565273              -1.5382
        39                         -0.0415296              -1.1301
       ...                                ...                  ...
        62                          0.6639868              18.0680
      -------------------------------------------------------------
                  HL-Gap            0.0890915 Eh            2.4243 eV
             Fermi-level           -0.2879245 Eh           -7.8348 eV

  Mulliken/CM5 charges         n(s)   n(p)   n(d)
     1C    -0.09843 -0.24168   1.010  3.088  0.000
     2C     0.02601  0.00825   1.085  2.889  0.000
     3F    -0.95023 -0.95598   1.980  5.970  0.000
     4C    -0.04746 -0.10101   1.058  2.989  0.000
     5C    -0.04512 -0.09806   1.059  2.986  0.000
     6C    -0.01177 -0.02222   1.084  2.928  0.000
     7C     0.08581  0.03487   1.007  2.907  0.000
     8N    -0.52542 -0.97725   1.477  4.048  0.000
     9C    -0.04505 -0.09798   1.059  2.986  0.000
    10C    -0.04931 -0.10291   1.059  2.990  0.000
    11H     0.08113  0.13712   0.919  0.000  0.000
    12H     0.01765  0.07019   0.982  0.000  0.000
    13H     0.01847  0.07093   0.982  0.000  0.000
    14H     0.02287  0.07939   0.977  0.000  0.000
    15H     0.02060  0.07752   0.979  0.000  0.000
    16H     0.01783  0.08265   0.982  0.000  0.000
    17H     0.01676  0.07961   0.983  0.000  0.000
    18H     0.20496  0.39311   0.795  0.000  0.000
    19H     0.21367  0.40247   0.786  0.000  0.000
    20H     0.02379  0.08118   0.976  0.000  0.000
    21H     0.02324  0.07979   0.977  0.000  0.000

Wiberg/Mayer (AO) data.
largest (>0.10) Wiberg bond orders for each atom

 ---------------------------------------------------------------------------
     #   Z sym  total        # sym  WBO       # sym  WBO       # sym  WBO
 ---------------------------------------------------------------------------
     1   6 C    3.989 --     2 C    1.030    12 H    0.985    13 H    0.983
                            11 H    0.931
     2   6 C    3.987 --    10 C    1.406     4 C    1.405     1 C    1.030
                             6 C    0.106
     3   9 F    0.095
     4   6 C    3.995 --     5 C    1.452     2 C    1.405    14 H    0.974
                             9 C    0.108
     5   6 C    3.996 --     4 C    1.452     6 C    1.415    15 H    0.973
                            10 C    0.107
     6   6 C    3.988 --     5 C    1.415     9 C    1.414     7 C    1.005
                             2 C    0.106
     7   6 C    3.979 --     6 C    1.005     8 N    0.983    16 H    0.981
                            17 H    0.973
     8   7 N    2.932 --     7 C    0.983    18 H    0.954    19 H    0.950
     9   6 C    3.996 --    10 C    1.451     6 C    1.414    20 H    0.974
                             4 C    0.108
    10   6 C    3.995 --     9 C    1.451     2 C    1.406    21 H    0.973
                             5 C    0.107
    11   1 H    1.039 --     1 C    0.931
    12   1 H    1.006 --     1 C    0.985
    13   1 H    1.007 --     1 C    0.983
    14   1 H    1.003 --     4 C    0.974
    15   1 H    1.003 --     5 C    0.973
    16   1 H    1.013 --     7 C    0.981
    17   1 H    1.005 --     7 C    0.973
    18   1 H    0.969 --     8 N    0.954
    19   1 H    0.963 --     8 N    0.950
    20   1 H    1.002 --     9 C    0.974
    21   1 H    1.004 --    10 C    0.973
 ---------------------------------------------------------------------------

Topologies differ in total number of bonds
Writing topology from bond orders to xtbtopo.mol

 dipole moment from electron density (au)
     X       Y       Z   
   6.6990  -0.9579   5.8858  total (Debye):   22.796

           -------------------------------------------------
          |                Geometry Summary                 |
           -------------------------------------------------

      molecular mass/u    :      140.1783418
   center of mass at/Å    :       -0.2916248       0.0428179      -0.1986376
  moments of inertia/u·Å² :        0.2256453E+03   0.9067331E+03   0.9480390E+03
rotational constants/cm⁻¹ :        0.7470854E-01   0.1859161E-01   0.1778158E-01

 * 18 selected distances

     #   Z          #   Z                                           value/Å
     2   6 C        4   6 C                                       1.3945502
     4   6 C        5   6 C                                       1.3873399
     5   6 C        6   6 C                                       1.3926429
     7   6 C        8   7 N                                       1.4718763 (max)
     6   6 C        9   6 C                                       1.3928197
     2   6 C       10   6 C                                       1.3943795
     9   6 C       10   6 C                                       1.3874901
     1   6 C       11   1 H                                       1.1021234
     1   6 C       12   1 H                                       1.0902535
     1   6 C       13   1 H                                       1.0904873
     4   6 C       14   1 H                                       1.0858410
     5   6 C       15   1 H                                       1.0855743
     7   6 C       16   1 H                                       1.0946262
     7   6 C       17   1 H                                       1.1001307
     8   7 N       18   1 H                                       1.0130567
     8   7 N       19   1 H                                       1.0095493 (min)
     9   6 C       20   1 H                                       1.0848384
    10   6 C       21   1 H                                       1.0854881

 * 4 distinct bonds (by element types)

   Z      Z             #   av. dist./Å        max./Å        min./Å
   1 H    6 C           9     1.0910403     1.1021234     1.0848384
   6 C    6 C           6     1.3915371     1.3945502     1.3873399
   1 H    7 N           2     1.0113030     1.0130567     1.0095493
   6 C    7 N           1     1.4718763     1.4718763     1.4718763


optimized geometry written to: xtbopt.xyz


           -------------------------------------------------
          | TOTAL ENERGY              -31.512582845322 Eh   |
          | GRADIENT NORM               0.000576236379 Eh/α |
          | HOMO-LUMO GAP               2.424301962798 eV   |
           -------------------------------------------------

------------------------------------------------------------------------
 * finished run on 2023/06/20 at 15:13:49.809     
------------------------------------------------------------------------
 total:
 * wall-time:     0 d,  0 h,  0 min,  1.402 sec
 *  cpu-time:     0 d,  0 h,  0 min,  1.373 sec
 * ratio c/w:     0.979 speedup
 SCF:
 * wall-time:     0 d,  0 h,  0 min,  0.035 sec
 *  cpu-time:     0 d,  0 h,  0 min,  0.035 sec
 * ratio c/w:     0.994 speedup
 ANC optimizer:
 * wall-time:     0 d,  0 h,  0 min,  1.325 sec
 *  cpu-time:     0 d,  0 h,  0 min,  1.317 sec
 * ratio c/w:     0.994 speedup

