38
 energy: -79.621641060576 gnorm: 0.000652952190 xtb: 6.5.1 (579679a)
C            5.52216345961434        2.22159499973258       -0.51556124062766
O            4.37528395150355        1.42569984448444       -0.25206807474408
C            4.47430500067947        0.10989172341664       -0.61648722116226
O            5.49566976053644       -0.30740194821101       -1.13964542290908
C            3.27515576428173       -0.64827981187151       -0.30175001781773
N            2.25558412700811        0.07525246879633        0.28871035466247
C            1.15992330716473       -0.49628190632496        0.62119992096115
C            0.04698601727822        0.28196856382724        1.29107420901731
C            0.31591826424500        1.78443307066748        1.16776288075988
C           -0.05368280814837       -0.14034531714917        2.76424525461993
N           -1.20322375553073       -0.05779929195711        0.59312063456312
C           -2.40981864390916        0.43292846669884        0.93077216435128
O           -2.64701350979953        1.16998632411684        1.87276998675997
C           -3.45591706860464       -0.05053684737318       -0.01231797498269
N           -3.25777689047795       -0.80934520233783       -1.04764941705439
N           -4.47404851843695       -1.00384858985565       -1.63185309749490
C           -5.33597791057922       -0.34913945313980       -0.91589716145693
C           -6.79493954875734       -0.23824952296294       -1.13389669696983
O           -4.75491121070652        0.27436142623271        0.12034126624279
N            0.94885861769506       -1.84790464403496        0.42225707171995
C            1.86821621026469       -2.68444870519399       -0.15996102855426
O            1.60346399361675       -3.87543666472721       -0.30089583729971
C            3.16942180820028       -2.03736626981920       -0.58232401386319
O            4.03700596991360       -2.74403755403100       -1.12419557509257
H            5.29310479168583        3.23239874324124       -0.18064942093948
H            5.75204435314499        2.23040981761659       -1.58618589785926
H            6.39256616200520        1.84072906842234        0.02907138536007
H            0.34092222419083        2.07300780852180        0.11761551630520
H            1.28170450309557        2.01267264336363        1.61691481707427
H           -0.46001316357222        2.35106636326441        1.67817940447885
H            0.90367493645906        0.03298666474552        3.25399696179170
H           -0.82133186611971        0.43747044229671        3.27506056500163
H           -0.30201736893755       -1.19812178516947        2.83406814284915
H           -1.14475035788847       -0.61414283922558       -0.24779728393203
H           -7.33218872507309       -0.60806984626983       -0.26062513464293
H           -7.06991550526014        0.80610779136312       -1.28129538752452
H           -7.07965592739974       -0.81630545484168       -2.00992928603915
H            0.08521055661726       -2.26590457631635        0.72536665444359
