      -----------------------------------------------------------      
     |                   =====================                   |     
     |                           x T B                           |     
     |                   =====================                   |     
     |                         S. Grimme                         |     
     |          Mulliken Center for Theoretical Chemistry        |     
     |                    University of Bonn                     |     
      -----------------------------------------------------------      

   * xtb version 6.5.1 (579679a) compiled by 'ehlert@majestix' on 2022-07-11

   xtb is free software: you can redistribute it and/or modify it under
   the terms of the GNU Lesser General Public License as published by
   the Free Software Foundation, either version 3 of the License, or
   (at your option) any later version.
   
   xtb is distributed in the hope that it will be useful,
   but WITHOUT ANY WARRANTY; without even the implied warranty of
   MERCHANTABILITY or FITNESS FOR A PARTICULAR PURPOSE.  See the
   GNU Lesser General Public License for more details.
   
   Cite this work as:
   * C. Bannwarth, E. Caldeweyher, S. Ehlert, A. Hansen, P. Pracht,
     J. Seibert, S. Spicher, S. Grimme, WIREs Comput. Mol. Sci., 2020, 11,
     e01493. DOI: 10.1002/wcms.1493
   
   for GFN2-xTB:
   * C. Bannwarth, S. Ehlert and S. Grimme., J. Chem. Theory Comput., 2019,
     15, 1652-1671. DOI: 10.1021/acs.jctc.8b01176
   for GFN1-xTB:
   * S. Grimme, C. Bannwarth, P. Shushkov, J. Chem. Theory Comput., 2017,
     13, 1989-2009. DOI: 10.1021/acs.jctc.7b00118
   for GFN0-xTB:
   * P. Pracht, E. Caldeweyher, S. Ehlert, S. Grimme, ChemRxiv, 2019, preprint.
     DOI: 10.26434/chemrxiv.8326202.v1
   for GFN-FF:
   * S. Spicher and S. Grimme, Angew. Chem. Int. Ed., 2020, 59, 15665-15673.
     DOI: 10.1002/anie.202004239
   
   for ALPB and GBSA implicit solvation:
   * S. Ehlert, M. Stahn, S. Spicher, S. Grimme, J. Chem. Theory Comput.,
     2021, 17, 4250-4261. DOI: 10.1021/acs.jctc.1c00471
   
   for DFT-D4:
   * E. Caldeweyher, C. Bannwarth and S. Grimme, J. Chem. Phys., 2017,
     147, 034112. DOI: 10.1063/1.4993215
   * E. Caldeweyher, S. Ehlert, A. Hansen, H. Neugebauer, S. Spicher,
     C. Bannwarth and S. Grimme, J. Chem. Phys., 2019, 150, 154122.
     DOI: 10.1063/1.5090222
   * E. Caldeweyher, J.-M. Mewes, S. Ehlert and S. Grimme, Phys. Chem. Chem. Phys.
     2020, 22, 8499-8512. DOI: 10.1039/D0CP00502A
   
   for sTDA-xTB:
   * S. Grimme and C. Bannwarth, J. Chem. Phys., 2016, 145, 054103.
     DOI: 10.1063/1.4959605
   
   in the mass-spec context:
   * V. Asgeirsson, C. Bauer and S. Grimme, Chem. Sci., 2017, 8, 4879.
     DOI: 10.1039/c7sc00601b
   * J. Koopman and S. Grimme, ACS Omega 2019, 4, 12, 15120-15133.
     DOI: 10.1021/acsomega.9b02011
   
   for metadynamics refer to:
   * S. Grimme, J. Chem. Theory Comput., 2019, 155, 2847-2862
     DOI: 10.1021/acs.jctc.9b00143
   
   for SPH calculations refer to:
   * S. Spicher and S. Grimme, J. Chem. Theory Comput., 2021, 17, 1701-1714
     DOI: 10.1021/acs.jctc.0c01306
   
   with help from (in alphabetical order)
   P. Atkinson, C. Bannwarth, F. Bohle, G. Brandenburg, E. Caldeweyher
   M. Checinski, S. Dohm, S. Ehlert, S. Ehrlich, I. Gerasimov, C. Hölzer
   A. Katbashev, J. Koopman, C. Lavigne, S. Lehtola, F. März, M. Müller,
   F. Musil, H. Neugebauer, J. Pisarek, C. Plett, P. Pracht, F. Pultar,
   J. Seibert, P. Shushkov, S. Spicher, M. Stahn, M. Steiner, T. Strunk,
   J. Stückrath, T. Rose, and J. Unsleber
   
 * started run on 2023/06/20 at 18:00:44.986     

           -------------------------------------------------
          |                Calculation Setup                |
           -------------------------------------------------

          program call               : /lustre/hpc/kemi/ree/PhD/git/ReactivityQM/dep/xtb-6.5.1/bin/xtb --gfn 1 /lustre/hpc/kemi/ree/PhD/git/ReactivityQM/calculations/R02deprot/reac01prodE13/conf10/R02deprot_reac01prodE13_conf10_gfn1.xyz --opt --vfukui --chrg -2 --uhf 0 --alpb DMSO
          hostname                   : node308
          coordinate file            : /lustre/hpc/kemi/ree/PhD/git/ReactivityQM/calculations/R02deprot/reac01prodE13/conf10/R02deprot_reac01prodE13_conf10_gfn1.xyz
          omp threads                :                     1

   ID    Z sym.   atoms
    1    6 C      1, 3, 5, 6, 8, 10, 12-15, 17, 19, 22, 23
    2    8 O      2, 4, 7, 9, 18, 24
    3    7 N      11, 16, 20, 21, 25
    4    1 H      26-42

           -------------------------------------------------
          |                 G F N 1 - x T B                 |
           -------------------------------------------------

        Reference                      10.1021/acs.jctc.7b00118
      * Hamiltonian:
        H0-scaling (s, p, d)           1.850000    2.250000    2.000000
        zeta-weighting                 0.000000
      * Dispersion:
        s8                             2.400000
        a1                             0.630000
        a2                             5.000000
        s9                             0.000000
      * Repulsion:
        kExp                           1.500000
        rExp                           1.000000
      * Coulomb:
        alpha                          2.000000
        third order                    atomic
        anisotropic                    false
      * Halogen bond correction:
        rad-scale                      1.300000
        damping                        0.440000

      * Solvation model:               ALPB
        Solvent                        DMSO
        Parameter file                 internal GFN1-xTB/ALPB
        Dielectric constant                4.6680E+01
        Reference state                gsolv [1 M gas/solution]
        Free energy shift                  7.6243E-03 Eh       4.7843E+00 kcal/mol
        Temperature                        2.9815E+02 K
        Density                            1.1000E+00 kg/L
        Solvent mass                       7.8130E+01 g/mol
        Interaction kernel             P16
        Born radius scaling (c1)           1.7672E+00
        Born radii integrator          GBOBC
        Born offset                        0.0000E+00 a0       0.0000E+00 AA
        H-bond correction              true
        Ion screening                  false
        Surface tension                    1.0000E-05 Eh       1.5569E+01 dyn/cm
        Grid points                               230 per atom

          ...................................................
          :                      SETUP                      :
          :.................................................:
          :  # basis functions                 134          :
          :  # atomic orbitals                 134          :
          :  # shells                           84          :
          :  # electrons                       136          :
          :  # halogen bonds                     0          :
          :  max. iterations                   250          :
          :  Hamiltonian                  GFN1-xTB          :
          :  restarted?                      false          :
          :  GBSA solvation                   true          :
          :  PC potential                    false          :
          :  electronic temp.          300.0000000     K    :
          :  accuracy                    1.0000000          :
          :  -> integral cutoff          0.2500000E+02      :
          :  -> integral neglect         0.1000000E-07      :
          :  -> SCF convergence          0.1000000E-05 Eh   :
          :  -> wf. convergence          0.2000000E-04 e    :
          :  Broyden damping             0.4000000          :
          ...................................................

 iter      E             dE          RMSdq      gap      omega  full diag
   1    -84.0148831 -0.840149E+02  0.872E+00    0.49       0.0  T
   2    -84.0411741 -0.262910E-01  0.539E+00    1.47       1.0  T
   3    -83.9718417  0.693324E-01  0.289E+00    0.99       1.0  T
   4    -84.1903020 -0.218460E+00  0.116E+00    1.27       1.0  T
   5    -84.2266320 -0.363300E-01  0.693E-01    0.29       1.0  T
   6    -84.0847850  0.141847E+00  0.130E+00    1.12       1.0  T
   7    -84.2810804 -0.196295E+00  0.242E-01    0.06       1.0  T
   8    -84.1447201  0.136360E+00  0.982E-01    0.15       1.0  T
   9    -84.2375624 -0.928424E-01  0.597E-01    0.18       1.0  T
  10    -84.2509404 -0.133780E-01  0.508E-01    0.13       1.0  T
  11    -84.2875053 -0.365649E-01  0.910E-02    0.02       1.0  T
  12    -84.2878791 -0.373778E-03  0.767E-02    0.02       1.0  T
  13    -84.2883881 -0.509090E-03  0.503E-02    0.04       1.0  T
  14    -84.2886525 -0.264345E-03  0.275E-02    0.03       1.0  T
  15    -84.2887343 -0.817881E-04  0.146E-02    0.03       1.1  T
  16    -84.2887639 -0.296465E-04  0.384E-03    0.03       4.0  T
  17    -84.2887659 -0.201631E-05  0.116E-03    0.03      13.3  T
  18    -84.2887661 -0.157000E-06  0.531E-04    0.03      29.0  T
  19    -84.2887661 -0.407889E-07  0.100E-04    0.03     153.9  T
  20    -84.2887661 -0.627438E-09  0.766E-05    0.03     201.5  T

   *** convergence criteria satisfied after 20 iterations ***

         #    Occupation            Energy/Eh            Energy/eV
      -------------------------------------------------------------
         1        2.0000           -0.7897558             -21.4903
       ...           ...                  ...                  ...
        62        2.0000           -0.3853443             -10.4858
        63        2.0000           -0.3832437             -10.4286
        64        2.0000           -0.3775906             -10.2748
        65        2.0000           -0.3733535             -10.1595
        66        2.0000           -0.3596519              -9.7866
        67        2.0000           -0.3476579              -9.4603
        68        1.2715           -0.2457417              -6.6870 (HOMO)
        69        0.7285           -0.2446834              -6.6582 (LUMO)
        70                         -0.2034370              -5.5358
        71                         -0.1988767              -5.4117
        72                         -0.1554662              -4.2304
        73                         -0.1273083              -3.4642
       ...                                ...                  ...
       134                          0.7448312              20.2679
      -------------------------------------------------------------
                  HL-Gap            0.0010583 Eh            0.0288 eV
             Fermi-level           -0.2452126 Eh           -6.6726 eV

 SCC (total)                   0 d,  0 h,  0 min,  0.211 sec
 SCC setup                      ...        0 min,  0.002 sec (  1.042%)
 Dispersion                     ...        0 min,  0.000 sec (  0.188%)
 classical contributions        ...        0 min,  0.000 sec (  0.060%)
 integral evaluation            ...        0 min,  0.058 sec ( 27.471%)
 iterations                     ...        0 min,  0.069 sec ( 32.698%)
 molecular gradient             ...        0 min,  0.080 sec ( 38.089%)
 printout                       ...        0 min,  0.001 sec (  0.434%)

         :::::::::::::::::::::::::::::::::::::::::::::::::::::
         ::                     SUMMARY                     ::
         :::::::::::::::::::::::::::::::::::::::::::::::::::::
         :: total energy             -83.568195478330 Eh    ::
         :: total w/o Gsasa/hb       -83.545195197043 Eh    ::
         :: gradient norm              0.161854759921 Eh/a0 ::
         :: HOMO-LUMO gap              0.028797358849 eV    ::
         ::.................................................::
         :: SCC energy               -84.288766138486 Eh    ::
         :: -> electrostatic           0.641497242232 Eh    ::
         :: -> Gsolv                  -0.266094811939 Eh    ::
         ::    -> Gelec               -0.243094530652 Eh    ::
         ::    -> Gsasa               -0.025742588137 Eh    ::
         ::    -> Ghb                 -0.004881972155 Eh    ::
         ::    -> Gshift               0.007624279005 Eh    ::
         :: repulsion energy           0.745193106100 Eh    ::
         :: dispersion energy         -0.024622445944 Eh    ::
         :: halogen bond corr.         0.000000000000 Eh    ::
         :: add. restraining           0.000000000000 Eh    ::
         :: total charge              -2.000000000000 e     ::
         :::::::::::::::::::::::::::::::::::::::::::::::::::::

      ----------------------------------------------------------- 
     |                   =====================                   |
     |                        A N C O P T                        |
     |                   =====================                   |
     |               Approximate Normal Coordinate               |
     |                Rational Function Optimizer                |
      ----------------------------------------------------------- 

          ...................................................
          :                      SETUP                      :
          :.................................................:
          :   optimization level            normal          :
          :   max. optcycles                   200          :
          :   ANC micro-cycles                  20          :
          :   degrees of freedom               120          :
          :.................................................:
          :   RF solver                   davidson          :
          :   write xtbopt.log                true          :
          :   linear?                        false          :
          :   energy convergence         0.5000000E-05 Eh   :
          :   grad. convergence          0.1000000E-02 Eh/α :
          :   maximium RF displ.         1.0000000          :
          :   Hlow (freq-cutoff)         0.1000000E-01      :
          :   Hmax (freq-cutoff)         5.0000000          :
          :   S6 in model hess.         20.0000000          :
          ...................................................

generating ANC from model Hessian ...
Using Lindh-Hessian (1995)
 Shifting diagonal of input Hessian by   9.865236389717773E-003
 Lowest  eigenvalues of input Hessian
    0.000000    0.000000    0.000000    0.000000    0.000000    0.000000
    0.010000    0.010158    0.010575    0.010972    0.011305    0.012118
    0.012455    0.013295    0.013895    0.014503    0.015113    0.015892
 Highest eigenvalues
    1.912327    2.082154    2.095978    2.133803    2.215292    2.291701
 

........................................................................
.............................. CYCLE    1 ..............................
........................................................................
   1    -84.2887661 -0.842888E+02  0.468E-06    0.03       0.0  T
   2    -84.2887661  0.130706E-08  0.936E-05    0.03     164.9  T
   3    -84.2887661 -0.131030E-08  0.171E-07    0.03   90143.8  T
     SCC iter.                  ...        0 min,  0.011 sec
     gradient                   ...        0 min,  0.080 sec
 * total energy  :   -83.5681955 Eh     change       -0.8792540E-09 Eh
   gradient norm :     0.1618531 Eh/α   predicted     0.0000000E+00 (-100.00%)
   displ. norm   :     0.2344482 α      lambda       -0.1864120E-01
   maximum displ.:     0.1226770 α      in ANC's #23, #37, #24, ...

........................................................................
.............................. CYCLE    2 ..............................
........................................................................
   1    -84.2936816 -0.842937E+02  0.160E-01    0.04       0.0  T
   2    -84.1216406  0.172041E+00  0.111E+00    0.26       1.0  T
   3    -84.2895586 -0.167918E+00  0.217E-01    0.06       1.0  T
   4    -84.2947135 -0.515490E-02  0.102E-01    0.02       1.0  T
   5    -84.2934028  0.131071E-02  0.139E-01    0.05       1.0  T
   6    -84.2947312 -0.132833E-02  0.101E-01    0.02       1.0  T
   7    -84.2962201 -0.148895E-02  0.112E-02    0.03       1.4  T
   8    -84.2962380 -0.179213E-04  0.203E-03    0.03       7.6  T
   9    -84.2962382 -0.196988E-06  0.167E-03    0.03       9.3  T
  10    -84.2962386 -0.369078E-06  0.517E-04    0.03      29.8  T
  11    -84.2962386 -0.355969E-07  0.164E-04    0.03      93.9  T
  12    -84.2962386 -0.343030E-08  0.628E-05    0.03     245.7  T
     SCC iter.                  ...        0 min,  0.041 sec
     gradient                   ...        0 min,  0.080 sec
 * total energy  :   -83.5816881 Eh     change       -0.1349267E-01 Eh
   gradient norm :     0.0754552 Eh/α   predicted    -0.9835552E-02 ( -27.10%)
   displ. norm   :     0.2653834 α      lambda       -0.8135640E-02
   maximum displ.:     0.1464392 α      in ANC's #23, #24, #37, ...

........................................................................
.............................. CYCLE    3 ..............................
........................................................................
   1    -84.3028372 -0.843028E+02  0.177E-01    0.05       0.0  T
   2    -84.1241957  0.178642E+00  0.115E+00    0.35       1.0  T
   3    -84.3063199 -0.182124E+00  0.437E-02    0.03       1.0  T
   4    -84.3061812  0.138704E-03  0.414E-02    0.03       1.0  T
   5    -84.3046032  0.157805E-02  0.112E-01    0.05       1.0  T
   6    -84.3028448  0.175836E-02  0.156E-01    0.01       1.0  T
   7    -84.3063736 -0.352880E-02  0.158E-02    0.03       1.0  T
   8    -84.3064090 -0.354055E-04  0.269E-03    0.03       5.7  T
   9    -84.3064099 -0.899204E-06  0.101E-03    0.03      15.3  T
  10    -84.3064100 -0.131675E-06  0.321E-04    0.03      48.1  T
  11    -84.3064100 -0.150562E-07  0.960E-06    0.03    1607.4  T
  12    -84.3064100  0.304240E-09  0.463E-05    0.03     333.3  T
     SCC iter.                  ...        0 min,  0.042 sec
     gradient                   ...        0 min,  0.076 sec
 * total energy  :   -83.5862970 Eh     change       -0.4608824E-02 Eh
   gradient norm :     0.0181961 Eh/α   predicted    -0.4355095E-02 (  -5.51%)
   displ. norm   :     0.1673003 α      lambda       -0.7806898E-03
   maximum displ.:     0.0658672 α      in ANC's #23, #9, #12, ...

........................................................................
.............................. CYCLE    4 ..............................
........................................................................
   1    -84.3074733 -0.843075E+02  0.657E-02    0.04       0.0  T
   2    -84.1716236  0.135850E+00  0.974E-01    0.13       1.0  T
   3    -84.3080414 -0.136418E+00  0.138E-02    0.03       1.1  T
   4    -84.3080499 -0.855873E-05  0.416E-03    0.03       3.7  T
   5    -84.3080474  0.247448E-05  0.500E-03    0.03       3.1  T
   6    -84.3080496 -0.218812E-05  0.235E-03    0.03       6.6  T
   7    -84.3080504 -0.803069E-06  0.701E-05    0.03     220.1  T
   8    -84.3080504  0.856915E-11  0.387E-05    0.03     398.4  T
     SCC iter.                  ...        0 min,  0.028 sec
     gradient                   ...        0 min,  0.076 sec
 * total energy  :   -83.5868831 Eh     change       -0.5861124E-03 Eh
   gradient norm :     0.0115306 Eh/α   predicted    -0.4013122E-03 ( -31.53%)
   displ. norm   :     0.2650478 α      lambda       -0.6792890E-03
   maximum displ.:     0.1113114 α      in ANC's #9, #8, #2, ...

........................................................................
.............................. CYCLE    5 ..............................
........................................................................
   1    -84.3087485 -0.843087E+02  0.680E-02    0.04       0.0  T
   2    -84.1681658  0.140583E+00  0.993E-01    0.13       1.0  T
   3    -84.3093499 -0.141184E+00  0.163E-02    0.03       1.0  T
   4    -84.3093667 -0.167392E-04  0.607E-03    0.03       2.5  T
   5    -84.3093635  0.312761E-05  0.662E-03    0.03       2.3  T
   6    -84.3093679 -0.433455E-05  0.253E-03    0.03       6.1  T
   7    -84.3093688 -0.918277E-06  0.384E-04    0.03      40.2  T
   8    -84.3093688 -0.196961E-07  0.523E-05    0.03     295.3  T
   9    -84.3093688  0.785832E-09  0.819E-05    0.03     188.3  T
     SCC iter.                  ...        0 min,  0.031 sec
     gradient                   ...        0 min,  0.076 sec
 * total energy  :   -83.5873396 Eh     change       -0.4564886E-03 Eh
   gradient norm :     0.0071866 Eh/α   predicted    -0.3635274E-03 ( -20.36%)
   displ. norm   :     0.2374800 α      lambda       -0.3209717E-03
   maximum displ.:     0.1054796 α      in ANC's #2, #9, #8, ...

........................................................................
.............................. CYCLE    6 ..............................
........................................................................
   1    -84.3099500 -0.843099E+02  0.155E-02    0.03       0.0  T
   2    -84.3077171  0.223287E-02  0.124E-01    0.02       1.0  T
   3    -84.3097523 -0.203520E-02  0.397E-02    0.04       1.0  T
   4    -84.3099457 -0.193410E-03  0.127E-02    0.03       1.2  T
   5    -84.3099577 -0.119429E-04  0.802E-03    0.03       1.9  T
   6    -84.3099662 -0.855590E-05  0.420E-04    0.03      36.8  T
   7    -84.3099662 -0.171795E-07  0.145E-04    0.03     106.3  T
   8    -84.3099662 -0.249925E-08  0.204E-05    0.03     756.3  T
     SCC iter.                  ...        0 min,  0.028 sec
     gradient                   ...        0 min,  0.076 sec
 * total energy  :   -83.5875890 Eh     change       -0.2494530E-03 Eh
   gradient norm :     0.0088488 Eh/α   predicted    -0.1695781E-03 ( -32.02%)
   displ. norm   :     0.3403548 α      lambda       -0.3910868E-03
   maximum displ.:     0.1668710 α      in ANC's #2, #8, #9, ...

........................................................................
.............................. CYCLE    7 ..............................
........................................................................
   1    -84.3090937 -0.843091E+02  0.767E-02    0.02       0.0  T
   2    -84.2544454  0.546483E-01  0.634E-01    0.23       1.0  T
   3    -84.3082534 -0.538080E-01  0.110E-01    0.04       1.0  T
   4    -84.3093041 -0.105065E-02  0.663E-02    0.02       1.0  T
   5    -84.3093167 -0.126083E-04  0.670E-02    0.04       1.0  T
   6    -84.3099525 -0.635830E-03  0.317E-03    0.03       4.9  T
   7    -84.3099534 -0.882276E-06  0.122E-03    0.03      12.7  T
   8    -84.3099535 -0.106029E-06  0.821E-04    0.03      18.8  T
   9    -84.3099536 -0.961188E-07  0.439E-05    0.03     351.2  T
  10    -84.3099536 -0.192330E-09  0.638E-06    0.03    2419.5  T
     SCC iter.                  ...        0 min,  0.034 sec
     gradient                   ...        0 min,  0.076 sec
 * total energy  :   -83.5878839 Eh     change       -0.2949099E-03 Eh
   gradient norm :     0.0102608 Eh/α   predicted    -0.2182009E-03 ( -26.01%)
   displ. norm   :     0.3295662 α      lambda       -0.3275839E-03
   maximum displ.:     0.1822159 α      in ANC's #2, #8, #5, ...

........................................................................
.............................. CYCLE    8 ..............................
........................................................................
   1    -84.3052382 -0.843052E+02  0.171E-01    0.01       0.0  T
   2    -84.2439564  0.612818E-01  0.721E-01    0.47       1.0  T
   3    -84.2840024 -0.400460E-01  0.423E-01    0.10       1.0  T
   4    -84.3089950 -0.249926E-01  0.633E-02    0.04       1.0  T
   5    -84.3095461 -0.551040E-03  0.585E-03    0.03       2.6  T
   6    -84.3091281  0.418002E-03  0.543E-02    0.04       1.0  T
   7    -84.3095380 -0.409968E-03  0.944E-03    0.03       1.6  T
   8    -84.3095509 -0.128967E-04  0.686E-04    0.03      22.5  T
   9    -84.3095509 -0.841885E-08  0.635E-04    0.03      24.3  T
  10    -84.3095510 -0.519027E-07  0.192E-04    0.03      80.5  T
  11    -84.3095510 -0.182412E-08  0.157E-04    0.03      98.2  T
     SCC iter.                  ...        0 min,  0.038 sec
     gradient                   ...        0 min,  0.076 sec
 * total energy  :   -83.5881263 Eh     change       -0.2423383E-03 Eh
   gradient norm :     0.0084721 Eh/α   predicted    -0.1815826E-03 ( -25.07%)
   displ. norm   :     0.2656307 α      lambda       -0.2407188E-03
   maximum displ.:     0.1657250 α      in ANC's #2, #5, #4, ...

........................................................................
.............................. CYCLE    9 ..............................
........................................................................
   1    -84.3033936 -0.843034E+02  0.204E-01    0.01       0.0  T
   2    -84.2407617  0.626319E-01  0.748E-01    0.56       1.0  T
   3    -84.2725882 -0.318265E-01  0.510E-01    0.13       1.0  T
   4    -84.3065058 -0.339176E-01  0.146E-01    0.05       1.0  T
   5    -84.3081364 -0.163059E-02  0.987E-02    0.02       1.0  T
   6    -84.3086719 -0.535490E-03  0.789E-02    0.04       1.0  T
   7    -84.3095656 -0.893641E-03  0.181E-03    0.03       8.5  T
   8    -84.3095659 -0.344654E-06  0.185E-04    0.03      83.4  T
   9    -84.3095659  0.404893E-07  0.537E-04    0.03      28.7  T
  10    -84.3095659 -0.415331E-07  0.427E-05    0.03     361.2  T
     SCC iter.                  ...        0 min,  0.034 sec
     gradient                   ...        0 min,  0.076 sec
 * total energy  :   -83.5883037 Eh     change       -0.1774423E-03 Eh
   gradient norm :     0.0048129 Eh/α   predicted    -0.1288522E-03 ( -27.38%)
   displ. norm   :     0.2272216 α      lambda       -0.1683180E-03
   maximum displ.:     0.1500407 α      in ANC's #2, #5, #4, ...

........................................................................
.............................. CYCLE   10 ..............................
........................................................................
   1    -84.3050713 -0.843051E+02  0.174E-01    0.01       0.0  T
   2    -84.2414029  0.636684E-01  0.733E-01    0.48       1.0  T
   3    -84.2833479 -0.419450E-01  0.427E-01    0.10       1.0  T
   4    -84.3081556 -0.248078E-01  0.973E-02    0.04       1.0  T
   5    -84.3089622 -0.806551E-03  0.612E-02    0.02       1.0  T
   6    -84.3092492 -0.287018E-03  0.427E-02    0.03       1.0  T
   7    -84.3095109 -0.261750E-03  0.184E-03    0.03       8.4  T
   8    -84.3095114 -0.454892E-06  0.577E-04    0.03      26.8  T
   9    -84.3095114 -0.406852E-07  0.186E-04    0.03      82.9  T
  10    -84.3095114 -0.400190E-08  0.800E-05    0.03     192.8  T
     SCC iter.                  ...        0 min,  0.034 sec
     gradient                   ...        0 min,  0.076 sec
 * total energy  :   -83.5884318 Eh     change       -0.1281138E-03 Eh
   gradient norm :     0.0038098 Eh/α   predicted    -0.8851312E-04 ( -30.91%)
   displ. norm   :     0.2214183 α      lambda       -0.1409789E-03
   maximum displ.:     0.1436227 α      in ANC's #2, #5, #4, ...

........................................................................
.............................. CYCLE   11 ..............................
........................................................................
   1    -84.3074899 -0.843075E+02  0.121E-01    0.01       0.0  T
   2    -84.2441152  0.633747E-01  0.701E-01    0.34       1.0  T
   3    -84.3008581 -0.567429E-01  0.247E-01    0.06       1.0  T
   4    -84.3093953 -0.853727E-02  0.417E-02    0.02       1.0  T
   5    -84.3096181 -0.222763E-03  0.145E-02    0.03       1.1  T
   6    -84.3096308 -0.126975E-04  0.114E-02    0.03       1.4  T
   7    -84.3096492 -0.183862E-04  0.634E-04    0.03      24.3  T
   8    -84.3096492 -0.151606E-07  0.545E-04    0.03      28.3  T
   9    -84.3096492 -0.416374E-07  0.986E-05    0.03     156.5  T
  10    -84.3096492  0.155116E-08  0.142E-04    0.03     108.7  T
     SCC iter.                  ...        0 min,  0.035 sec
     gradient                   ...        0 min,  0.076 sec
 * total energy  :   -83.5885401 Eh     change       -0.1082327E-03 Eh
   gradient norm :     0.0053820 Eh/α   predicted    -0.7394638E-04 ( -31.68%)
   displ. norm   :     0.2314536 α      lambda       -0.1244608E-03
   maximum displ.:     0.1456777 α      in ANC's #2, #5, #4, ...

........................................................................
.............................. CYCLE   12 ..............................
........................................................................
   1    -84.3090226 -0.843090E+02  0.572E-02    0.02       0.0  T
   2    -84.2569871  0.520355E-01  0.610E-01    0.17       1.0  T
   3    -84.3090104 -0.520233E-01  0.588E-02    0.03       1.0  T
   4    -84.3093086 -0.298196E-03  0.368E-02    0.02       1.0  T
   5    -84.3094613 -0.152636E-03  0.178E-02    0.03       1.0  T
   6    -84.3095018 -0.405327E-04  0.566E-03    0.03       2.7  T
   7    -84.3095063 -0.449483E-05  0.546E-04    0.03      28.2  T
   8    -84.3095063 -0.430791E-07  0.657E-05    0.03     234.9  T
   9    -84.3095063 -0.476291E-09  0.258E-05    0.03     598.5  T
     SCC iter.                  ...        0 min,  0.031 sec
     gradient                   ...        0 min,  0.076 sec
 * total energy  :   -83.5886368 Eh     change       -0.9677943E-04 Eh
   gradient norm :     0.0055071 Eh/α   predicted    -0.6556579E-04 ( -32.25%)
   displ. norm   :     0.2407569 α      lambda       -0.1174662E-03
   maximum displ.:     0.1451800 α      in ANC's #2, #5, #3, ...

........................................................................
.............................. CYCLE   13 ..............................
........................................................................
   1    -84.3100786 -0.843101E+02  0.171E-02    0.03       0.0  T
   2    -84.2925689  0.175097E-01  0.348E-01    0.02       1.0  T
   3    -84.3101176 -0.175486E-01  0.371E-03    0.03       4.2  T
   4    -84.3101190 -0.140365E-05  0.967E-04    0.03      16.0  T
   5    -84.3101190 -0.157934E-07  0.531E-04    0.03      29.1  T
   6    -84.3101190  0.130291E-08  0.219E-04    0.03      70.6  T
   7    -84.3101190 -0.608377E-08  0.340E-05    0.03     453.4  T
   8    -84.3101190 -0.541434E-10  0.146E-05    0.03    1057.3  T
     SCC iter.                  ...        0 min,  0.027 sec
     gradient                   ...        0 min,  0.079 sec
 * total energy  :   -83.5887236 Eh     change       -0.8679958E-04 Eh
   gradient norm :     0.0049462 Eh/α   predicted    -0.6213875E-04 ( -28.41%)
   displ. norm   :     0.2445390 α      lambda       -0.9930495E-04
   maximum displ.:     0.1543827 α      in ANC's #2, #5, #3, ...

........................................................................
.............................. CYCLE   14 ..............................
........................................................................
   1    -84.3089985 -0.843090E+02  0.421E-02    0.03       0.0  T
   2    -84.2231092  0.858893E-01  0.773E-01    0.08       1.0  T
   3    -84.3092295 -0.861203E-01  0.110E-02    0.03       1.4  T
   4    -84.3092328 -0.326028E-05  0.889E-03    0.03       1.7  T
   5    -84.3092414 -0.863119E-05  0.350E-03    0.03       4.4  T
   6    -84.3092429 -0.143476E-05  0.295E-04    0.03      52.3  T
   7    -84.3092429 -0.897185E-08  0.852E-05    0.03     181.0  T
   8    -84.3092429 -0.563503E-09  0.258E-05    0.03     598.8  T
     SCC iter.                  ...        0 min,  0.028 sec
     gradient                   ...        0 min,  0.082 sec
 * total energy  :   -83.5887907 Eh     change       -0.6702075E-04 Eh
   gradient norm :     0.0028720 Eh/α   predicted    -0.5264823E-04 ( -21.44%)
   displ. norm   :     0.2020370 α      lambda       -0.8577674E-04
   maximum displ.:     0.1205256 α      in ANC's #2, #3, #4, ...

........................................................................
.............................. CYCLE   15 ..............................
........................................................................
   1    -84.3093504 -0.843094E+02  0.896E-02    0.04       0.0  T
   2    -84.1469945  0.162356E+00  0.108E+00    0.20       1.0  T
   3    -84.3098766 -0.162882E+00  0.670E-02    0.02       1.0  T
   4    -84.3103179 -0.441292E-03  0.376E-02    0.03       1.0  T
   5    -84.3105104 -0.192435E-03  0.102E-02    0.03       1.5  T
   6    -84.3105251 -0.147544E-04  0.440E-04    0.03      35.1  T
   7    -84.3105251  0.262190E-09  0.310E-04    0.03      49.7  T
   8    -84.3105251 -0.125373E-07  0.442E-05    0.03     349.2  T
   9    -84.3105251  0.546976E-10  0.482E-05    0.03     320.3  T
     SCC iter.                  ...        0 min,  0.032 sec
     gradient                   ...        0 min,  0.082 sec
 * total energy  :   -83.5888484 Eh     change       -0.5774483E-04 Eh
   gradient norm :     0.0041434 Eh/α   predicted    -0.4464639E-04 ( -22.68%)
   displ. norm   :     0.2069814 α      lambda       -0.7167701E-04
   maximum displ.:     0.1291149 α      in ANC's #2, #3, #4, ...

........................................................................
.............................. CYCLE   16 ..............................
........................................................................
   1    -84.3097443 -0.843097E+02  0.389E-02    0.03       0.0  T
   2    -84.2301144  0.796298E-01  0.744E-01    0.07       1.0  T
   3    -84.3099608 -0.798464E-01  0.309E-03    0.03       5.0  T
   4    -84.3099582  0.263028E-05  0.475E-03    0.03       3.2  T
   5    -84.3099608 -0.258591E-05  0.184E-03    0.03       8.4  T
   6    -84.3099612 -0.388851E-06  0.124E-04    0.03     124.5  T
   7    -84.3099612 -0.830539E-09  0.298E-05    0.03     517.4  T
     SCC iter.                  ...        0 min,  0.025 sec
     gradient                   ...        0 min,  0.081 sec
 * total energy  :   -83.5889040 Eh     change       -0.5560237E-04 Eh
   gradient norm :     0.0049887 Eh/α   predicted    -0.3737523E-04 ( -32.78%)
   displ. norm   :     0.2559551 α      lambda       -0.1032179E-03
   maximum displ.:     0.1571010 α      in ANC's #2, #3, #4, ...

........................................................................
.............................. CYCLE   17 ..............................
........................................................................
   1    -84.3099701 -0.843100E+02  0.274E-02    0.03       0.0  T
   2    -84.2659030  0.440671E-01  0.553E-01    0.04       1.0  T
   3    -84.3100733 -0.441703E-01  0.488E-03    0.03       3.2  T
   4    -84.3100728  0.438792E-06  0.454E-03    0.03       3.4  T
   5    -84.3100752 -0.236651E-05  0.172E-03    0.03       9.0  T
   6    -84.3100755 -0.359267E-06  0.135E-04    0.03     114.2  T
   7    -84.3100755 -0.504201E-10  0.582E-05    0.03     265.1  T
     SCC iter.                  ...        0 min,  0.024 sec
     gradient                   ...        0 min,  0.083 sec
 * total energy  :   -83.5889723 Eh     change       -0.6828862E-04 Eh
   gradient norm :     0.0049386 Eh/α   predicted    -0.5499451E-04 ( -19.47%)
   displ. norm   :     0.2279976 α      lambda       -0.6522175E-04
   maximum displ.:     0.1449359 α      in ANC's #2, #3, #4, ...

........................................................................
.............................. CYCLE   18 ..............................
........................................................................
   1    -84.3086890 -0.843087E+02  0.486E-02    0.02       0.0  T
   2    -84.2629639  0.457251E-01  0.570E-01    0.15       1.0  T
   3    -84.3089005 -0.459365E-01  0.298E-02    0.03       1.0  T
   4    -84.3089843 -0.838937E-04  0.173E-02    0.03       1.0  T
   5    -84.3090143 -0.299167E-04  0.976E-03    0.03       1.6  T
   6    -84.3090277 -0.134013E-04  0.123E-03    0.03      12.5  T
   7    -84.3090279 -0.213561E-06  0.774E-05    0.03     199.2  T
   8    -84.3090279  0.265521E-08  0.153E-04    0.03     100.7  T
     SCC iter.                  ...        0 min,  0.030 sec
     gradient                   ...        0 min,  0.073 sec
 * total energy  :   -83.5890114 Eh     change       -0.3913529E-04 Eh
   gradient norm :     0.0045682 Eh/α   predicted    -0.3430783E-04 ( -12.34%)
   displ. norm   :     0.1152644 α      lambda       -0.5350812E-04
   maximum displ.:     0.0741060 α      in ANC's #2, #3, #4, ...

........................................................................
.............................. CYCLE   19 ..............................
........................................................................
   1    -84.3094602 -0.843095E+02  0.598E-02    0.02       0.0  T
   2    -84.2570538  0.524065E-01  0.613E-01    0.18       1.0  T
   3    -84.3096281 -0.525744E-01  0.489E-02    0.03       1.0  T
   4    -84.3097270 -0.988326E-04  0.414E-02    0.02       1.0  T
   5    -84.3099673 -0.240360E-03  0.717E-03    0.03       2.2  T
   6    -84.3099743 -0.703357E-05  0.155E-03    0.03       9.9  T
   7    -84.3099746 -0.229121E-06  0.761E-04    0.03      20.3  T
   8    -84.3099747 -0.802657E-07  0.150E-04    0.03     102.8  T
   9    -84.3099747 -0.314012E-08  0.195E-05    0.03     790.5  T
     SCC iter.                  ...        0 min,  0.030 sec
     gradient                   ...        0 min,  0.081 sec
 * total energy  :   -83.5890461 Eh     change       -0.3470486E-04 Eh
   gradient norm :     0.0025156 Eh/α   predicted    -0.2711177E-04 ( -21.88%)
   displ. norm   :     0.1452672 α      lambda       -0.3448427E-04
   maximum displ.:     0.1052908 α      in ANC's #2, #3, #4, ...

........................................................................
.............................. CYCLE   20 ..............................
........................................................................
   1    -84.3095689 -0.843096E+02  0.528E-02    0.02       0.0  T
   2    -84.2606540  0.489150E-01  0.590E-01    0.16       1.0  T
   3    -84.3097629 -0.491089E-01  0.380E-02    0.03       1.0  T
   4    -84.3098762 -0.113294E-03  0.258E-02    0.03       1.0  T
   5    -84.3099692 -0.930385E-04  0.466E-03    0.03       3.3  T
   6    -84.3099723 -0.307850E-05  0.460E-04    0.03      33.6  T
   7    -84.3099723  0.167753E-07  0.505E-04    0.03      30.6  T
   8    -84.3099723 -0.363262E-07  0.636E-05    0.03     242.5  T
   9    -84.3099723 -0.507313E-09  0.183E-05    0.03     842.1  T
     SCC iter.                  ...        0 min,  0.029 sec
     gradient                   ...        0 min,  0.077 sec
 * total energy  :   -83.5890722 Eh     change       -0.2607451E-04 Eh
   gradient norm :     0.0024435 Eh/α   predicted    -0.1760975E-04 ( -32.46%)
   displ. norm   :     0.1347035 α      lambda       -0.3330834E-04
   maximum displ.:     0.1003534 α      in ANC's #2, #3, #7, ...
 * RMSD in coord.:     0.5397786 α      energy gain  -0.2087673E-01 Eh

generating ANC from model Hessian ...
Using Lindh-Hessian (1995)
 Shifting diagonal of input Hessian by   9.850135314983877E-003
 Lowest  eigenvalues of input Hessian
    0.000000    0.000000    0.000000    0.000000    0.000000    0.000000
    0.010000    0.010143    0.010538    0.010993    0.011372    0.012144
    0.012433    0.013135    0.013659    0.014301    0.014862    0.015954
 Highest eigenvalues
    1.969555    2.102423    2.107368    2.139218    2.223696    2.226737
 

........................................................................
.............................. CYCLE   21 ..............................
........................................................................
   1    -84.3103280 -0.843103E+02  0.279E-02    0.02       0.0  T
   2    -84.2845897  0.257383E-01  0.424E-01    0.10       1.0  T
   3    -84.3104328 -0.258431E-01  0.679E-03    0.03       2.3  T
   4    -84.3104387 -0.592410E-05  0.206E-03    0.03       7.5  T
   5    -84.3104392 -0.549031E-06  0.384E-04    0.03      40.2  T
   6    -84.3104392  0.147154E-07  0.360E-04    0.03      42.9  T
   7    -84.3104392 -0.173979E-07  0.827E-05    0.03     186.5  T
   8    -84.3104392 -0.888221E-09  0.188E-05    0.03     819.9  T
     SCC iter.                  ...        0 min,  0.028 sec
     gradient                   ...        0 min,  0.077 sec
 * total energy  :   -83.5890962 Eh     change       -0.2397630E-04 Eh
   gradient norm :     0.0025627 Eh/α   predicted     0.0000000E+00 (-100.00%)
   displ. norm   :     0.0215486 α      lambda       -0.7537093E-05
   maximum displ.:     0.0091060 α      in ANC's #4, #12, #14, ...

........................................................................
.............................. CYCLE   22 ..............................
........................................................................
   1    -84.3104117 -0.843104E+02  0.279E-02    0.03       0.0  T
   2    -84.2632545  0.471572E-01  0.572E-01    0.05       1.0  T
   3    -84.3105246 -0.472700E-01  0.141E-03    0.03      10.9  T
   4    -84.3105247 -0.110708E-06  0.579E-04    0.03      26.6  T
   5    -84.3105247 -0.168567E-07  0.391E-04    0.03      39.5  T
   6    -84.3105247 -0.863277E-08  0.165E-04    0.03      93.8  T
   7    -84.3105247 -0.326510E-08  0.451E-05    0.03     342.4  T
     SCC iter.                  ...        0 min,  0.025 sec
     gradient                   ...        0 min,  0.078 sec
 * total energy  :   -83.5891072 Eh     change       -0.1097069E-04 Eh
   gradient norm :     0.0014064 Eh/α   predicted    -0.6454196E-05 ( -41.17%)
   displ. norm   :     0.1231338 α      lambda       -0.3175777E-04
   maximum displ.:     0.0540864 α      in ANC's #4, #12, #14, ...

........................................................................
.............................. CYCLE   23 ..............................
........................................................................
   1    -84.3088144 -0.843088E+02  0.112E-01    0.04       0.0  T
   2    -84.1382428  0.170572E+00  0.111E+00    0.26       1.0  T
   3    -84.3087899 -0.170547E+00  0.113E-01    0.02       1.0  T
   4    -84.3095563 -0.766438E-03  0.864E-02    0.04       1.0  T
   5    -84.3105870 -0.103066E-02  0.191E-02    0.03       1.0  T
   6    -84.3106398 -0.528551E-04  0.646E-04    0.03      23.9  T
   7    -84.3106397  0.920631E-07  0.842E-04    0.03      18.3  T
   8    -84.3106398 -0.841370E-07  0.303E-04    0.03      50.9  T
   9    -84.3106398 -0.130318E-07  0.520E-05    0.03     296.6  T
  10    -84.3106398 -0.333870E-09  0.146E-05    0.03    1058.4  T
     SCC iter.                  ...        0 min,  0.035 sec
     gradient                   ...        0 min,  0.078 sec
 * total energy  :   -83.5891295 Eh     change       -0.2230811E-04 Eh
   gradient norm :     0.0030938 Eh/α   predicted    -0.1598608E-04 ( -28.34%)
   displ. norm   :     0.0295143 α      lambda       -0.9119353E-05
   maximum displ.:     0.0139160 α      in ANC's #4, #2, #12, ...

........................................................................
.............................. CYCLE   24 ..............................
........................................................................
   1    -84.3106624 -0.843107E+02  0.270E-03    0.03       0.0  T
   2    -84.3103277  0.334678E-03  0.482E-02    0.03       1.0  T
   3    -84.3106631 -0.335447E-03  0.114E-03    0.03      13.5  T
   4    -84.3106633 -0.160618E-06  0.216E-04    0.03      71.4  T
   5    -84.3106633  0.141058E-08  0.173E-04    0.03      89.3  T
   6    -84.3106633 -0.278585E-08  0.386E-05    0.03     399.2  T
     SCC iter.                  ...        0 min,  0.021 sec
     gradient                   ...        0 min,  0.079 sec
 * total energy  :   -83.5891385 Eh     change       -0.9064212E-05 Eh
   gradient norm :     0.0025310 Eh/α   predicted    -0.4877066E-05 ( -46.19%)
   displ. norm   :     0.2004195 α      lambda       -0.5574679E-04
   maximum displ.:     0.0930066 α      in ANC's #4, #2, #12, ...

........................................................................
.............................. CYCLE   25 ..............................
........................................................................
   1    -84.3103335 -0.843103E+02  0.206E-02    0.03       0.0  T
   2    -84.2949432  0.153902E-01  0.327E-01    0.08       1.0  T
   3    -84.3103888 -0.154455E-01  0.415E-03    0.03       3.7  T
   4    -84.3103903 -0.155539E-05  0.127E-03    0.03      12.2  T
   5    -84.3103904 -0.373778E-07  0.568E-04    0.03      27.2  T
   6    -84.3103904 -0.103039E-08  0.155E-04    0.03      99.5  T
   7    -84.3103904 -0.157276E-08  0.732E-05    0.03     210.7  T
     SCC iter.                  ...        0 min,  0.025 sec
     gradient                   ...        0 min,  0.088 sec
 * total energy  :   -83.5891725 Eh     change       -0.3397018E-04 Eh
   gradient norm :     0.0023192 Eh/α   predicted    -0.2905699E-04 ( -14.46%)
   displ. norm   :     0.0874356 α      lambda       -0.1444287E-04
   maximum displ.:     0.0426252 α      in ANC's #4, #2, #12, ...

........................................................................
.............................. CYCLE   26 ..............................
........................................................................
   1    -84.3104082 -0.843104E+02  0.927E-03    0.03       0.0  T
   2    -84.3062733  0.413496E-02  0.169E-01    0.05       1.0  T
   3    -84.3104200 -0.414674E-02  0.149E-03    0.03      10.3  T
   4    -84.3104202 -0.171578E-06  0.759E-04    0.03      20.3  T
   5    -84.3104202 -0.575734E-07  0.300E-04    0.03      51.5  T
   6    -84.3104202 -0.645615E-08  0.742E-05    0.03     208.1  T
   7    -84.3104202 -0.683471E-09  0.108E-05    0.03    1427.3  T
     SCC iter.                  ...        0 min,  0.024 sec
     gradient                   ...        0 min,  0.076 sec
 * total energy  :   -83.5891849 Eh     change       -0.1240939E-04 Eh
   gradient norm :     0.0026169 Eh/α   predicted    -0.7275681E-05 ( -41.37%)
   displ. norm   :     0.2395765 α      lambda       -0.4884490E-04
   maximum displ.:     0.1179060 α      in ANC's #4, #2, #12, ...

........................................................................
.............................. CYCLE   27 ..............................
........................................................................
   1    -84.3103245 -0.843103E+02  0.224E-02    0.03       0.0  T
   2    -84.2920072  0.183173E-01  0.357E-01    0.08       1.0  T
   3    -84.3103942 -0.183870E-01  0.227E-03    0.03       6.8  T
   4    -84.3103941  0.105274E-06  0.180E-03    0.03       8.6  T
   5    -84.3103943 -0.183434E-06  0.107E-03    0.03      14.4  T
   6    -84.3103944 -0.114753E-06  0.106E-04    0.03     145.3  T
   7    -84.3103944 -0.100945E-08  0.280E-05    0.03     550.9  T
     SCC iter.                  ...        0 min,  0.025 sec
     gradient                   ...        0 min,  0.076 sec
 * total energy  :   -83.5892213 Eh     change       -0.3638570E-04 Eh
   gradient norm :     0.0029352 Eh/α   predicted    -0.2583223E-04 ( -29.00%)
   displ. norm   :     0.2051451 α      lambda       -0.4107260E-04
   maximum displ.:     0.1012550 α      in ANC's #4, #2, #12, ...

........................................................................
.............................. CYCLE   28 ..............................
........................................................................
   1    -84.3104315 -0.843104E+02  0.388E-03    0.03       0.0  T
   2    -84.3104107  0.207935E-04  0.122E-02    0.03       1.3  T
   3    -84.3103576  0.530974E-04  0.229E-02    0.03       1.0  T
   4    -84.3104317 -0.740719E-04  0.221E-03    0.03       7.0  T
   5    -84.3104320 -0.283166E-06  0.137E-03    0.03      11.3  T
   6    -84.3104322 -0.224522E-06  0.345E-04    0.03      44.8  T
   7    -84.3104322 -0.163124E-07  0.444E-05    0.03     347.8  T
   8    -84.3104322 -0.213731E-09  0.682E-06    0.03    2261.5  T
     SCC iter.                  ...        0 min,  0.028 sec
     gradient                   ...        0 min,  0.077 sec
 * total energy  :   -83.5892507 Eh     change       -0.2937543E-04 Eh
   gradient norm :     0.0028820 Eh/α   predicted    -0.2140350E-04 ( -27.14%)
   displ. norm   :     0.1394251 α      lambda       -0.3289144E-04
   maximum displ.:     0.0644887 α      in ANC's #4, #2, #1, ...

........................................................................
.............................. CYCLE   29 ..............................
........................................................................
   1    -84.3109366 -0.843109E+02  0.318E-02    0.03       0.0  T
   2    -84.2518708  0.590658E-01  0.640E-01    0.06       1.0  T
   3    -84.3110820 -0.592111E-01  0.409E-03    0.03       3.8  T
   4    -84.3110835 -0.150398E-05  0.207E-03    0.03       7.5  T
   5    -84.3110834  0.863061E-07  0.205E-03    0.03       7.5  T
   6    -84.3110839 -0.512783E-06  0.530E-04    0.03      29.1  T
   7    -84.3110839 -0.370703E-07  0.121E-04    0.03     127.4  T
   8    -84.3110839 -0.193350E-08  0.126E-05    0.03    1225.1  T
     SCC iter.                  ...        0 min,  0.028 sec
     gradient                   ...        0 min,  0.079 sec
 * total energy  :   -83.5892738 Eh     change       -0.2311829E-04 Eh
   gradient norm :     0.0023054 Eh/α   predicted    -0.1676599E-04 ( -27.48%)
   displ. norm   :     0.3789263 α      lambda       -0.5052265E-04
   maximum displ.:     0.1748660 α      in ANC's #4, #2, #12, ...

........................................................................
.............................. CYCLE   30 ..............................
........................................................................
   1    -84.3072122 -0.843072E+02  0.915E-02    0.04       0.0  T
   2    -84.1428469  0.164365E+00  0.108E+00    0.21       1.0  T
   3    -84.3076514 -0.164804E+00  0.738E-02    0.02       1.0  T
   4    -84.3080728 -0.421363E-03  0.497E-02    0.04       1.0  T
   5    -84.3083240 -0.251206E-03  0.277E-02    0.03       1.0  T
   6    -84.3084342 -0.110195E-03  0.489E-04    0.03      31.5  T
   7    -84.3084341  0.145778E-07  0.407E-04    0.03      37.9  T
   8    -84.3084342 -0.203691E-07  0.145E-04    0.03     106.7  T
   9    -84.3084342 -0.272976E-08  0.368E-05    0.03     419.5  T
     SCC iter.                  ...        0 min,  0.032 sec
     gradient                   ...        0 min,  0.081 sec
 * total energy  :   -83.5892316 Eh     change        0.4221326E-04 Eh
   gradient norm :     0.0074953 Eh/α   predicted    -0.2889644E-04 (-168.45%)
   displ. norm   :     0.2137009 α      lambda       -0.1811587E-03
   maximum displ.:     0.1032797 α      in ANC's #4, #2, #12, ...

........................................................................
.............................. CYCLE   31 ..............................
........................................................................
   1    -84.3115847 -0.843116E+02  0.131E-02    0.03       0.0  T
   2    -84.3074652  0.411946E-02  0.169E-01    0.05       1.0  T
   3    -84.3115970 -0.413175E-02  0.492E-03    0.03       3.1  T
   4    -84.3115969  0.520002E-07  0.215E-03    0.03       7.2  T
   5    -84.3115970 -0.117709E-06  0.495E-04    0.03      31.1  T
   6    -84.3115970 -0.650553E-08  0.149E-04    0.03     103.6  T
   7    -84.3115970 -0.826986E-09  0.553E-05    0.03     279.1  T
     SCC iter.                  ...        0 min,  0.025 sec
     gradient                   ...        0 min,  0.081 sec
 * total energy  :   -83.5893042 Eh     change       -0.7259977E-04 Eh
   gradient norm :     0.0018073 Eh/α   predicted    -0.9474294E-04 (  30.50%)
   displ. norm   :     0.0934362 α      lambda       -0.1217902E-04
   maximum displ.:     0.0391425 α      in ANC's #1, #2, #4, ...

........................................................................
.............................. CYCLE   32 ..............................
........................................................................
   1    -84.3113295 -0.843113E+02  0.195E-02    0.03       0.0  T
   2    -84.2870443  0.242852E-01  0.410E-01    0.02       1.0  T
   3    -84.3113847 -0.243404E-01  0.109E-03    0.03      14.1  T
   4    -84.3113848 -0.627289E-07  0.389E-04    0.03      39.7  T
   5    -84.3113848  0.274156E-08  0.312E-04    0.03      49.4  T
   6    -84.3113848 -0.515071E-08  0.711E-05    0.03     216.9  T
   7    -84.3113848 -0.617177E-09  0.916E-06    0.03    1685.1  T
     SCC iter.                  ...        0 min,  0.025 sec
     gradient                   ...        0 min,  0.082 sec
 * total energy  :   -83.5893199 Eh     change       -0.1573042E-04 Eh
   gradient norm :     0.0013114 Eh/α   predicted    -0.6114958E-05 ( -61.13%)
   displ. norm   :     0.2253610 α      lambda       -0.2656636E-04
   maximum displ.:     0.0984349 α      in ANC's #1, #5, #10, ...

........................................................................
.............................. CYCLE   33 ..............................
........................................................................
   1    -84.3104122 -0.843104E+02  0.147E-02    0.03       0.0  T
   2    -84.2977661  0.126460E-01  0.296E-01    0.01       1.0  T
   3    -84.3104411 -0.126750E-01  0.255E-03    0.03       6.0  T
   4    -84.3104411 -0.527208E-07  0.165E-03    0.03       9.3  T
   5    -84.3104412 -0.927818E-07  0.102E-03    0.03      15.1  T
   6    -84.3104413 -0.112312E-06  0.206E-04    0.03      74.7  T
   7    -84.3104413 -0.489547E-08  0.610E-05    0.03     252.9  T
   8    -84.3104413 -0.401229E-09  0.178E-05    0.03     864.7  T
     SCC iter.                  ...        0 min,  0.029 sec
     gradient                   ...        0 min,  0.081 sec
 * total energy  :   -83.5893382 Eh     change       -0.1828385E-04 Eh
   gradient norm :     0.0021542 Eh/α   predicted    -0.1358570E-04 ( -25.70%)
   displ. norm   :     0.0386617 α      lambda       -0.1007817E-04
   maximum displ.:     0.0190853 α      in ANC's #4, #5, #26, ...

........................................................................
.............................. CYCLE   34 ..............................
........................................................................
   1    -84.3108695 -0.843109E+02  0.164E-02    0.03       0.0  T
   2    -84.2991022  0.117674E-01  0.286E-01    0.07       1.0  T
   3    -84.3109037 -0.118015E-01  0.628E-03    0.03       2.5  T
   4    -84.3109090 -0.538492E-05  0.812E-04    0.03      19.0  T
   5    -84.3109089  0.139188E-06  0.117E-03    0.03      13.1  T
   6    -84.3109091 -0.183098E-06  0.249E-04    0.03      62.0  T
   7    -84.3109091 -0.809958E-08  0.661E-05    0.03     233.4  T
   8    -84.3109091 -0.598746E-09  0.149E-05    0.03    1033.4  T
     SCC iter.                  ...        0 min,  0.028 sec
     gradient                   ...        0 min,  0.081 sec
 * total energy  :   -83.5893454 Eh     change       -0.7239054E-05 Eh
   gradient norm :     0.0014157 Eh/α   predicted    -0.5046721E-05 ( -30.28%)
   displ. norm   :     0.0743234 α      lambda       -0.8870569E-05
   maximum displ.:     0.0416578 α      in ANC's #5, #1, #10, ...

........................................................................
.............................. CYCLE   35 ..............................
........................................................................
   1    -84.3109313 -0.843109E+02  0.510E-02    0.02       0.0  T
   2    -84.2635473  0.473840E-01  0.581E-01    0.16       1.0  T
   3    -84.3110216 -0.474742E-01  0.453E-02    0.03       1.0  T
   4    -84.3112110 -0.189436E-03  0.268E-02    0.03       1.0  T
   5    -84.3113106 -0.995538E-04  0.627E-03    0.03       2.5  T
   6    -84.3113143 -0.374383E-05  0.350E-03    0.03       4.4  T
   7    -84.3113160 -0.170022E-05  0.453E-04    0.03      34.1  T
   8    -84.3113160 -0.247712E-07  0.190E-04    0.03      81.1  T
   9    -84.3113160 -0.501910E-08  0.385E-05    0.03     400.6  T
     SCC iter.                  ...        0 min,  0.032 sec
     gradient                   ...        0 min,  0.081 sec
 * total energy  :   -83.5893535 Eh     change       -0.8031708E-05 Eh
   gradient norm :     0.0012939 Eh/α   predicted    -0.4450696E-05 ( -44.59%)
   displ. norm   :     0.0551563 α      lambda       -0.5442923E-05
   maximum displ.:     0.0301202 α      in ANC's #1, #5, #10, ...

........................................................................
.............................. CYCLE   36 ..............................
........................................................................
   1    -84.3110064 -0.843110E+02  0.353E-02    0.02       0.0  T
   2    -84.2766422  0.343642E-01  0.491E-01    0.12       1.0  T
   3    -84.3111344 -0.344922E-01  0.197E-02    0.03       1.0  T
   4    -84.3111848 -0.503645E-04  0.605E-03    0.03       2.6  T
   5    -84.3111893 -0.449794E-05  0.248E-03    0.03       6.2  T
   6    -84.3111899 -0.622981E-06  0.126E-03    0.03      12.2  T
   7    -84.3111901 -0.226665E-06  0.103E-04    0.03     149.3  T
   8    -84.3111901 -0.153130E-08  0.974E-06    0.03    1584.5  T
     SCC iter.                  ...        0 min,  0.027 sec
     gradient                   ...        0 min,  0.081 sec
 * total energy  :   -83.5893597 Eh     change       -0.6284839E-05 Eh
   gradient norm :     0.0006979 Eh/α   predicted    -0.2725680E-05 ( -56.63%)
   displ. norm   :     0.0761240 α      lambda       -0.5230222E-05
   maximum displ.:     0.0443782 α      in ANC's #1, #5, #10, ...

........................................................................
.............................. CYCLE   37 ..............................
........................................................................
   1    -84.3106584 -0.843107E+02  0.353E-02    0.02       0.0  T
   2    -84.2762081  0.344503E-01  0.492E-01    0.12       1.0  T
   3    -84.3107847 -0.345766E-01  0.200E-02    0.03       1.0  T
   4    -84.3108367 -0.519451E-04  0.587E-03    0.03       2.6  T
   5    -84.3108398 -0.311466E-05  0.372E-03    0.03       4.1  T
   6    -84.3108414 -0.166415E-05  0.137E-03    0.03      11.2  T
   7    -84.3108417 -0.266006E-06  0.159E-04    0.03      96.8  T
   8    -84.3108417 -0.367332E-08  0.733E-06    0.03    2105.6  T
     SCC iter.                  ...        0 min,  0.027 sec
     gradient                   ...        0 min,  0.076 sec
 * total energy  :   -83.5893645 Eh     change       -0.4790566E-05 Eh
   gradient norm :     0.0007705 Eh/α   predicted    -0.2624302E-05 ( -45.22%)
   displ. norm   :     0.0355137 α      lambda       -0.2184281E-05
   maximum displ.:     0.0224896 α      in ANC's #1, #6, #7, ...

   *** GEOMETRY OPTIMIZATION CONVERGED AFTER 37 ITERATIONS ***

------------------------------------------------------------------------
 total energy gain   :        -0.0211691 Eh      -13.2838 kcal/mol
 total RMSD          :         0.6550658 a0        0.3466 Å
 total power (kW/mol):        -1.5021448 (step)  -10.2982 (real)
------------------------------------------------------------------------

 ANCopt (total)                0 d,  0 h,  0 min,  5.397 sec
 optimizer setup                ...        0 min,  0.001 sec (  0.016%)
 model hessian                  ...        0 min,  0.041 sec (  0.761%)
 ANC generation                 ...        0 min,  0.005 sec (  0.088%)
 coordinate transformation      ...        0 min,  0.002 sec (  0.033%)
 single point calculation       ...        0 min,  5.331 sec ( 98.781%)
 optimization log               ...        0 min,  0.008 sec (  0.157%)
 hessian update                 ...        0 min,  0.001 sec (  0.017%)
 rational function              ...        0 min,  0.005 sec (  0.084%)

================
 final structure:
================
42
 xtb: 6.5.1 (579679a)
C           -5.44318167420904        2.20033337737728       -2.96877204249165
O           -4.54782706066250        1.90076916192438       -1.92208564928851
C           -3.54105305712151        0.96994403040918       -2.25469866073034
O           -3.52505662194108        0.50149666087268       -3.41970742541872
C           -2.64609917402718        0.66919838378111       -1.21079511692900
C           -2.64725165821141        1.19388334655767        0.13008755052040
O           -3.61268988804974        2.09566361851935        0.54809829623569
C           -1.67228882596708        0.78259986726997        0.99711542585718
O           -1.68902718410560        1.29027541845818        2.28862498451689
C           -0.67789167349072        0.80645047848067        3.15102114225436
N           -0.68816150008552       -0.09628628975747        0.67098011288405
C           -0.75158553053858       -0.55463173012059       -0.60034933276603
C            0.34441550972004       -1.56116548090082       -0.95428882479166
C            0.33837551003583       -1.85626186568207       -2.45776103280968
C            0.08703177024055       -2.84453691399824       -0.14089647086568
N            1.61190377601196       -0.94277362829443       -0.55604636002569
C            2.81344862488912       -1.65047134041076       -0.58593079894945
O            2.97239547332500       -2.69603704446730       -1.26639685757829
C            3.86858325414754       -1.04018945377567        0.15488965113451
N            5.13900235752876       -1.46012563998797        0.26952308159278
N            5.77232959383395       -0.56046985872358        1.08093295424918
C            4.90817087352091        0.33816526726918        1.42243036781616
C            5.14398297636679        1.51401478690136        2.29806993805459
O            3.67648979816295        0.12450089520358        0.88956649550752
N           -1.62586990294503       -0.24720265766181       -1.51254575590101
H           -6.16387095747988        2.92543585571534       -2.58533080284594
H           -4.92394936315234        2.63541082816836       -3.83365159383966
H           -5.98257810743183        1.30546713307325       -3.30788497287439
H           -3.44271322201538        2.31960423822573        1.47128045396262
H            0.32124427851652        1.04144348478944        2.76214009719040
H           -0.75377864274709       -0.28113071334710        3.28098935031124
H           -0.81844534843254        1.29766202676958        4.11494190409986
H            1.06436267955582       -2.62878304396537       -2.70731220994907
H            0.57837424955710       -0.94908671573985       -3.01410638294892
H           -0.65436215378872       -2.19416069583615       -2.75723018158999
H            0.08910394132066       -2.60504499168989        0.92288177827988
H            0.85240550916115       -3.59418733555141       -0.33998737827966
H           -0.88700513083013       -3.25777158407551       -0.40433377617882
H            1.50330137058899       -0.32522568767074        0.24306040554835
H            4.55851277376481        1.43405481425362        3.21494972985576
H            6.19937822399774        1.56502232185844        2.55581992235464
H            4.85187613299226        2.43414667579339        1.79096598483096
 
 Bond Distances (Angstroems)
 ---------------------------
C1-O2=1.4096         C1-H26=1.0919        C1-H27=1.0986        C1-H28=1.0985        O2-C1=1.4096         O2-C3=1.4109         
C3-O2=1.4109         C3-O4=1.2558         C3-C5=1.4075         O4-C3=1.2558         C5-C3=1.4075         C5-C6=1.4399         
C5-N25=1.4042        C6-C5=1.4399         C6-O7=1.3856         C6-C8=1.3680         O7-C6=1.3856         O7-H29=0.9650        
C8-C6=1.3680         C8-O9=1.3878         C8-N11=1.3592        O9-C8=1.3878         O9-C10=1.4143        C10-O9=1.4143        
C10-H30=1.0976       C10-H31=1.0979       C10-H32=1.0910       N11-C8=1.3592        N11-C12=1.3529       C12-N11=1.3529       
C12-C13=1.5296       C12-N25=1.3004       C13-C12=1.5296       C13-C14=1.5322       C13-C15=1.5411       C13-N16=1.4654       
C14-C13=1.5322       C14-H33=1.0891       C14-H34=1.0909       C14-H35=1.0906       C15-C13=1.5411       C15-H36=1.0904       
C15-H37=1.0897       C15-H38=1.0904       N16-C13=1.4654       N16-C17=1.3948       N16-H39=1.0157       C17-N16=1.3948       
C17-O18=1.2576       C17-C19=1.4264       O18-C17=1.2576       C19-C17=1.4264       C19-N20=1.3429       C19-O24=1.3904       
N20-C19=1.3429       N20-N21=1.3671       N21-N20=1.3671       N21-C22=1.2926       C22-N21=1.2926       C22-C23=1.4849       
C22-O24=1.3589       C23-C22=1.4849       C23-H40=1.0908       C23-H41=1.0876       C23-H42=1.0905       O24-C19=1.3904       
O24-C22=1.3589       N25-C5=1.4042        N25-C12=1.3004       H26-C1=1.0919        H27-C1=1.0986        H28-C1=1.0985        
H29-O7=0.9650        H30-C10=1.0976       H31-C10=1.0979       H32-C10=1.0910       H33-C14=1.0891       H34-C14=1.0909       
H35-C14=1.0906       H36-C15=1.0904       H37-C15=1.0897       H38-C15=1.0904       H39-N16=1.0157       H40-C23=1.0908       
H41-C23=1.0876       H42-C23=1.0905       
 C  H  Rav=1.0924 sigma=0.0036  Rmin=1.0876  Rmax=1.0986    15
 C  C  Rav=1.4662 sigma=0.0609  Rmin=1.3680  Rmax=1.5411     8
 N  H  Rav=1.0157 sigma=0.0000  Rmin=1.0157  Rmax=1.0157     1
 N  C  Rav=1.3641 sigma=0.0531  Rmin=1.2926  Rmax=1.4654     8
 N  N  Rav=1.3671 sigma=0.0000  Rmin=1.3671  Rmax=1.3671     1
 O  H  Rav=0.9650 sigma=0.0000  Rmin=0.9650  Rmax=0.9650     1
 O  C  Rav=1.3634 sigma=0.0593  Rmin=1.2558  Rmax=1.4143     9
 
 selected bond angles (degree)
 --------------------
H26-C1-O2=107.43               H27-C1-O2=111.62               H27-C1-H26=108.99              H28-C1-O2=111.59               
H28-C1-H26=108.98              H28-C1-H27=108.16              C3-O2-C1=114.73                O4-C3-O2=118.29                
C5-C3-O2=114.82                C5-C3-O4=126.89                C6-C5-C3=127.76                N25-C5-C3=116.23               
N25-C5-C6=116.01               O7-C6-C5=121.24                C8-C6-C5=118.69                C8-C6-O7=120.07                
H29-O7-C6=108.47               O9-C8-C6=118.11                N11-C8-C6=123.94               N11-C8-O9=117.94               
C10-O9-C8=115.70               H30-C10-O9=111.19              H31-C10-O9=111.20              H31-C10-H30=108.48             
H32-C10-O9=107.02              H32-C10-H30=109.51             H32-C10-H31=109.42             
 
 selected dihedral angles (degree)
 ---------------------------------
C3-O2-C1-H26=180.07           C3-O2-C1-H27=299.50           C3-O2-C1-H28= 60.66           O4-C3-O2-C1=  0.10            
C5-C3-O2-C1=180.01            C6-C5-C3-O2=  0.13            C6-C5-C3-O4=180.03            N25-C5-C3-O2=180.44           
N25-C5-C3-O4=  0.34           O7-C6-C5-C3=  0.94            O7-C6-C5-N25=180.62           C8-C6-C5-C3=180.78            
C8-C6-C5-N25=  0.47           H29-O7-C6-C5=179.68           H29-O7-C6-C8=359.84           O9-C8-C6-C5=180.34            
O9-C8-C6-O7=  0.19            N11-C8-C6-C5=  0.21           N11-C8-C6-O7=180.06           C10-O9-C8-C6=178.52           
C10-O9-C8-N11=358.65          H30-C10-O9-C8= 60.07          H31-C10-O9-C8=299.07          H32-C10-O9-C8=179.62          
           -------------------------------------------------
          |                Final Singlepoint                |
           -------------------------------------------------

          ...................................................
          :                      SETUP                      :
          :.................................................:
          :  # basis functions                 134          :
          :  # atomic orbitals                 134          :
          :  # shells                           84          :
          :  # electrons                       136          :
          :  # halogen bonds                     0          :
          :  max. iterations                   250          :
          :  Hamiltonian                  GFN1-xTB          :
          :  restarted?                      false          :
          :  GBSA solvation                   true          :
          :  PC potential                    false          :
          :  electronic temp.          300.0000000     K    :
          :  accuracy                    1.0000000          :
          :  -> integral cutoff          0.2500000E+02      :
          :  -> integral neglect         0.1000000E-07      :
          :  -> SCF convergence          0.1000000E-05 Eh   :
          :  -> wf. convergence          0.2000000E-04 e    :
          :  Broyden damping             0.4000000          :
          ...................................................

 iter      E             dE          RMSdq      gap      omega  full diag
   1    -84.3108417 -0.843108E+02  0.501E-06    0.03       0.0  T
   2    -84.3108417  0.122543E-08  0.921E-05    0.03     167.6  T
   3    -84.3108417 -0.122790E-08  0.203E-06    0.03    7609.6  T

   *** convergence criteria satisfied after 3 iterations ***

         #    Occupation            Energy/Eh            Energy/eV
      -------------------------------------------------------------
         1        2.0000           -0.7917686             -21.5451
       ...           ...                  ...                  ...
        62        2.0000           -0.3884128             -10.5693
        63        2.0000           -0.3855807             -10.4922
        64        2.0000           -0.3828970             -10.4192
        65        2.0000           -0.3730383             -10.1509
        66        2.0000           -0.3629236              -9.8757
        67        2.0000           -0.3494965              -9.5103
        68        1.2707           -0.2578584              -7.0167 (HOMO)
        69        0.7293           -0.2568034              -6.9880 (LUMO)
        70                         -0.2021527              -5.5009
        71                         -0.1960989              -5.3361
        72                         -0.1559197              -4.2428
        73                         -0.1296445              -3.5278
       ...                                ...                  ...
       134                          0.6905640              18.7912
      -------------------------------------------------------------
                  HL-Gap            0.0010550 Eh            0.0287 eV
             Fermi-level           -0.2573309 Eh           -7.0023 eV

 SCC (total)                   0 d,  0 h,  0 min,  0.123 sec
 SCC setup                      ...        0 min,  0.002 sec (  1.452%)
 Dispersion                     ...        0 min,  0.000 sec (  0.273%)
 classical contributions        ...        0 min,  0.000 sec (  0.088%)
 integral evaluation            ...        0 min,  0.033 sec ( 26.394%)
 iterations                     ...        0 min,  0.011 sec (  9.106%)
 molecular gradient             ...        0 min,  0.077 sec ( 62.159%)
 printout                       ...        0 min,  0.001 sec (  0.500%)

         :::::::::::::::::::::::::::::::::::::::::::::::::::::
         ::                     SUMMARY                     ::
         :::::::::::::::::::::::::::::::::::::::::::::::::::::
         :: total energy             -83.589364537502 Eh    ::
         :: total w/o Gsasa/hb       -83.566548459980 Eh    ::
         :: gradient norm              0.000770704050 Eh/a0 ::
         :: HOMO-LUMO gap              0.028707786209 eV    ::
         ::.................................................::
         :: SCC energy               -84.310841699949 Eh    ::
         :: -> electrostatic           0.653707600252 Eh    ::
         :: -> Gsolv                  -0.268714217784 Eh    ::
         ::    -> Gelec               -0.245898140262 Eh    ::
         ::    -> Gsasa               -0.025496884252 Eh    ::
         ::    -> Ghb                 -0.004943472275 Eh    ::
         ::    -> Gshift               0.007624279005 Eh    ::
         :: repulsion energy           0.746541010122 Eh    ::
         :: dispersion energy         -0.025063847675 Eh    ::
         :: halogen bond corr.         0.000000000000 Eh    ::
         :: add. restraining           0.000000000000 Eh    ::
         :: total charge              -2.000000000000 e     ::
         :::::::::::::::::::::::::::::::::::::::::::::::::::::

           -------------------------------------------------
          |                Property Printout                |
           -------------------------------------------------

    * Orbital Energies and Occupations

         #    Occupation            Energy/Eh            Energy/eV
      -------------------------------------------------------------
         1        2.0000           -0.7917686             -21.5451
       ...           ...                  ...                  ...
        56        2.0000           -0.4367714             -11.8852
        57        2.0000           -0.4262190             -11.5980
        58        2.0000           -0.4191889             -11.4067
        59        2.0000           -0.3975638             -10.8183
        60        2.0000           -0.3932831             -10.7018
        61        2.0000           -0.3914835             -10.6528
        62        2.0000           -0.3884128             -10.5693
        63        2.0000           -0.3855807             -10.4922
        64        2.0000           -0.3828970             -10.4192
        65        2.0000           -0.3730383             -10.1509
        66        2.0000           -0.3629236              -9.8757
        67        2.0000           -0.3494965              -9.5103
        68        1.2707           -0.2578584              -7.0167 (HOMO)
        69        0.7293           -0.2568034              -6.9880 (LUMO)
        70                         -0.2021527              -5.5009
        71                         -0.1960989              -5.3361
        72                         -0.1559197              -4.2428
        73                         -0.1296445              -3.5278
        74                         -0.1206691              -3.2836
        75                         -0.1083855              -2.9493
        76                         -0.1057529              -2.8777
        77                         -0.0884749              -2.4075
        78                         -0.0826956              -2.2503
        79                         -0.0725926              -1.9753
       ...                                ...                  ...
       134                          0.6905640              18.7912
      -------------------------------------------------------------
                  HL-Gap            0.0010550 Eh            0.0287 eV
             Fermi-level           -0.2573309 Eh           -7.0023 eV

  Mulliken/CM5 charges         n(s)   n(p)   n(d)
     1C     0.18579  0.06820   0.961  2.853  0.000
     2O    -0.48347 -0.56357   1.701  4.782  0.000
     3C     0.46062  0.51940   0.965  2.574  0.000
     4O    -0.70660 -0.74784   1.750  4.956  0.000
     5C    -0.00291  0.06820   1.030  2.973  0.000
     6C     0.15357  0.18439   1.012  2.834  0.000
     7O    -0.56786 -0.76065   1.702  4.866  0.000
     8C     0.30549  0.40077   0.982  2.713  0.000
     9O    -0.47064 -0.55656   1.693  4.778  0.000
    10C     0.18244  0.06595   0.967  2.851  0.000
    11N    -0.51839 -0.70286   1.556  3.963  0.000
    12C     0.27081  0.42596   1.016  2.714  0.000
    13C     0.15689  0.19844   1.060  2.783  0.000
    14C    -0.08171 -0.21895   1.007  3.074  0.000
    15C    -0.09186 -0.23061   1.013  3.079  0.000
    16N    -0.38645 -0.72423   1.449  3.937  0.000
    17C     0.38251  0.48049   0.975  2.643  0.000
    18O    -0.68539 -0.72777   1.748  4.938  0.000
    19C     0.26066  0.37418   1.004  2.735  0.000
    20N    -0.34600 -0.44007   1.585  3.761  0.000
    21N    -0.31711 -0.42476   1.571  3.746  0.000
    22C     0.35079  0.45919   0.991  2.658  0.000
    23C    -0.10893 -0.24609   1.008  3.101  0.000
    24O    -0.41559 -0.46880   1.712  4.704  0.000
    25N    -0.44924 -0.62669   1.550  3.899  0.000
    26H     0.01044  0.07047   0.990  0.000  0.000
    27H     0.01139  0.07257   0.989  0.000  0.000
    28H     0.01149  0.07267   0.989  0.000  0.000
    29H     0.36100  0.54285   0.639  0.000  0.000
    30H     0.02054  0.08290   0.979  0.000  0.000
    31H     0.01795  0.07980   0.982  0.000  0.000
    32H     0.02177  0.08196   0.978  0.000  0.000
    33H     0.02336  0.08328   0.977  0.000  0.000
    34H     0.01341  0.07153   0.987  0.000  0.000
    35H     0.01207  0.07020   0.988  0.000  0.000
    36H     0.02015  0.07920   0.980  0.000  0.000
    37H     0.02878  0.08788   0.971  0.000  0.000
    38H     0.01356  0.06810   0.986  0.000  0.000
    39H     0.20948  0.41943   0.791  0.000  0.000
    40H     0.05200  0.10606   0.948  0.000  0.000
    41H     0.04374  0.09963   0.956  0.000  0.000
    42H     0.05145  0.10575   0.949  0.000  0.000

Wiberg/Mayer (AO) data.
largest (>0.10) Wiberg bond orders for each atom

 ---------------------------------------------------------------------------
     #   Z sym  total        # sym  WBO       # sym  WBO       # sym  WBO
 ---------------------------------------------------------------------------
     1   6 C    3.923 --    26 H    0.987    28 H    0.980    27 H    0.980
                             2 O    0.956
     2   8 O    2.042 --     1 C    0.956     3 C    0.926
     3   6 C    3.726 --     4 O    1.420     5 C    1.284     2 O    0.926
     4   8 O    1.649 --     3 C    1.420
     5   6 C    3.761 --     3 C    1.284     6 C    1.165    25 N    1.105
     6   6 C    3.800 --     8 C    1.470     5 C    1.165     7 O    0.991
     7   8 O    1.958 --     6 C    0.991    29 H    0.855
     8   6 C    3.804 --     6 C    1.470    11 N    1.207     9 O    0.960
     9   8 O    2.069 --     8 C    0.960    10 C    0.939
    10   6 C    3.910 --    32 H    0.986    31 H    0.981    30 H    0.980
                             9 O    0.939
    11   7 N    2.792 --    12 C    1.277     8 C    1.207
    12   6 C    3.951 --    25 N    1.549    11 N    1.277    13 C    0.966
    13   6 C    3.948 --    14 C    0.999    15 C    0.979    12 C    0.966
                            16 N    0.941
    14   6 C    3.995 --    13 C    0.999    34 H    0.986    35 H    0.986
                            33 H    0.983
    15   6 C    3.992 --    38 H    0.988    36 H    0.986    37 H    0.984
                            13 C    0.979
    16   7 N    3.150 --    17 C    1.101    13 C    0.941    39 H    0.910
                            18 O    0.109
    17   6 C    3.756 --    18 O    1.415    19 C    1.169    16 N    1.101
    18   8 O    1.660 --    17 C    1.415    16 N    0.109
    19   6 C    3.671 --    20 N    1.376    17 C    1.169    24 O    0.959
    20   7 N    2.706 --    19 C    1.376    21 N    1.190
    21   7 N    2.981 --    22 C    1.627    20 N    1.190
    22   6 C    3.808 --    21 N    1.627    24 O    1.037    23 C    1.023
    23   6 C    3.995 --    22 C    1.023    41 H    0.986    42 H    0.973
                            40 H    0.971
    24   8 O    2.163 --    22 C    1.037    19 C    0.959
    25   7 N    2.899 --    12 C    1.549     5 C    1.105
    26   1 H    1.021 --     1 C    0.987
    27   1 H    1.021 --     1 C    0.980
    28   1 H    1.021 --     1 C    0.980
    29   1 H    0.887 --     7 O    0.855
    30   1 H    1.021 --    10 C    0.980
    31   1 H    1.020 --    10 C    0.981
    32   1 H    1.018 --    10 C    0.986
    33   1 H    1.026 --    14 C    0.983
    34   1 H    1.017 --    14 C    0.986
    35   1 H    1.024 --    14 C    0.986
    36   1 H    1.018 --    15 C    0.986
    37   1 H    1.017 --    15 C    0.984
    38   1 H    1.008 --    15 C    0.988
    39   1 H    0.986 --    16 N    0.910
    40   1 H    1.001 --    23 C    0.971
    41   1 H    1.005 --    23 C    0.986
    42   1 H    1.001 --    23 C    0.973
 ---------------------------------------------------------------------------

Topologies differ in total number of bonds
Writing topology from bond orders to xtbtopo.mol

 dipole moment from electron density (au)
     X       Y       Z   
  -0.9342   3.3045   6.2043  total (Debye):   18.024

           -------------------------------------------------
          |                Geometry Summary                 |
           -------------------------------------------------

      molecular mass/u    :      351.3152409
   center of mass at/Å    :        0.0946451      -0.0174337      -0.2323320
  moments of inertia/u·Å² :        0.1311973E+04   0.4617735E+04   0.5358457E+04
rotational constants/cm⁻¹ :        0.1284907E-01   0.3650628E-02   0.3145986E-02

 * 35 selected distances

     #   Z          #   Z                                           value/Å
     1   6 C        2   8 O                                       1.4095926
     3   6 C        5   6 C                                       1.4075246
     6   6 C        7   8 O                                       1.3856450
     6   6 C        8   6 C                                       1.3680074
     8   6 C        9   8 O                                       1.3878083
     9   8 O       10   6 C                                       1.4142875
     8   6 C       11   7 N                                       1.3591586
    11   7 N       12   6 C                                       1.3529161
    13   6 C       14   6 C                                       1.5321708 (max)
    13   6 C       16   7 N                                       1.4654462
    16   7 N       17   6 C                                       1.3947901
    17   6 C       19   6 C                                       1.4263830
    19   6 C       20   7 N                                       1.3429268
    21   7 N       22   6 C                                       1.2926470
    22   6 C       23   6 C                                       1.4849157
    19   6 C       24   8 O                                       1.3903791
    22   6 C       24   8 O                                       1.3589095
    12   6 C       25   7 N                                       1.3003801
     1   6 C       26   1 H                                       1.0918764
     1   6 C       27   1 H                                       1.0985952
     1   6 C       28   1 H                                       1.0985135
     7   8 O       29   1 H                                       0.9650425 (min)
    10   6 C       30   1 H                                       1.0975988
    10   6 C       31   1 H                                       1.0979452
    10   6 C       32   1 H                                       1.0909572
    14   6 C       33   1 H                                       1.0890924
    14   6 C       34   1 H                                       1.0909109
    14   6 C       35   1 H                                       1.0905896
    15   6 C       36   1 H                                       1.0904059
    15   6 C       37   1 H                                       1.0896835
    15   6 C       38   1 H                                       1.0903716
    16   7 N       39   1 H                                       1.0157420
    23   6 C       40   1 H                                       1.0907968
    23   6 C       41   1 H                                       1.0876103
    23   6 C       42   1 H                                       1.0904695

 * 6 distinct bonds (by element types)

   Z      Z             #   av. dist./Å        max./Å        min./Å
   1 H    6 C          15     1.0923611     1.0985952     1.0876103
   6 C    6 C           5     1.4438003     1.5321708     1.3680074
   1 H    7 N           1     1.0157420     1.0157420     1.0157420
   6 C    7 N           7     1.3583235     1.4654462     1.2926470
   1 H    8 O           1     0.9650425     0.9650425     0.9650425
   6 C    8 O           6     1.3911037     1.4142875     1.3589095


optimized geometry written to: xtbopt.xyz


           -------------------------------------------------
          | TOTAL ENERGY              -83.589364537502 Eh   |
          | GRADIENT NORM               0.000770704050 Eh/α |
          | HOMO-LUMO GAP               0.028707786209 eV   |
           -------------------------------------------------

------------------------------------------------------------------------
 * finished run on 2023/06/20 at 18:00:50.918     
------------------------------------------------------------------------
 total:
 * wall-time:     0 d,  0 h,  0 min,  5.931 sec
 *  cpu-time:     0 d,  0 h,  0 min,  5.737 sec
 * ratio c/w:     0.967 speedup
 SCF:
 * wall-time:     0 d,  0 h,  0 min,  0.211 sec
 *  cpu-time:     0 d,  0 h,  0 min,  0.188 sec
 * ratio c/w:     0.890 speedup
 ANC optimizer:
 * wall-time:     0 d,  0 h,  0 min,  5.524 sec
 *  cpu-time:     0 d,  0 h,  0 min,  5.501 sec
 * ratio c/w:     0.996 speedup

